<LesHouchesEvents version="3.0">
<header>
<!--
#*********************************************************************
#                                                                    *
#                        MadGraph5_aMC@NLO                           *
#                                                                    *
#                           Going Beyond                             *
#                                                                    *
#                   http://madgraph.hep.uiuc.edu                     *
#                   http://madgraph.phys.ucl.ac.be                   *
#                   http://amcatnlo.cern.ch                          *
#                                                                    *
#                     The MadGraph5_aMC@NLO team                     *
#                                                                    *
#....................................................................*
#                                                                    *
# This file contains all the information necessary to reproduce      *
# the events generated:                                              *
#                                                                    *
# 1. software version                                                *
# 2. proc_card          : code generation info including model       *
# 3. param_card         : model primary parameters in the LH format  *
# 4. run_card           : running parameters (collider and cuts)     *
# 5. pythia_card        : present only if pythia has been run        *
# 6. pgs_card           : present only if pgs has been run           *
# 7. delphes_cards      : present only if delphes has been run       *
#                                                                    *
#                                                                    *
#*********************************************************************
-->
<MGVersion>
#3.4.2
</MGVersion>
<MG5ProcCard>
<![CDATA[
#************************************************************
#*                     MadGraph5_aMC@NLO                    *
#*                                                          *
#*                *                       *                 *
#*                  *        * *        *                   *
#*                    * * * * 5 * * * *                     *
#*                  *        * *        *                   *
#*                *                       *                 *
#*                                                          *
#*                                                          *
#*         VERSION 3.4.2                 2023-01-20         *
#*                                                          *
#*    The MadGraph5_aMC@NLO Development Team - Find us at   *
#*    https://server06.fynu.ucl.ac.be/projects/madgraph     *
#*                                                          *
#************************************************************
#*                                                          *
#*               Command File for MadGraph5_aMC@NLO         *
#*                                                          *
#*     run as ./bin/mg5_aMC  filename                       *
#*                                                          *
#************************************************************
set group_subprocesses Auto
set ignore_six_quark_processes False
set low_mem_multicore_nlo_generation False
set complex_mass_scheme False
set include_lepton_initiated_processes False
set gauge unitary
set loop_optimized_output True
set loop_color_flows False
set max_npoint_for_channel 0
set default_unset_couplings 99
set max_t_for_channel 99
set zerowidth_tchannel True
set nlo_mixed_expansion True
import model sm
define p = g u c d s u~ c~ d~ s~
define j = g u c d s u~ c~ d~ s~
define l+ = e+ mu+
define l- = e- mu-
define vl = ve vm vt
define vl~ = ve~ vm~ vt~
import model MSSM
generate p p > n1 n1 j
output MSSMmonojet
]]>
</MG5ProcCard>
<MGProcCard>
#*********************************************************************
#                        MadGraph/MadEvent                           *
#                   http://madgraph.hep.uiuc.edu                     *
#                                                                    *
#                          proc_card.dat                             *
#*********************************************************************
#                                                                    *
#            This Files is generated by MADGRAPH 5                   *
#                                                                    *
# WARNING: This Files is generated for MADEVENT (compatibility issue)*
#          This files is NOT a valid MG4 proc_card.dat               *
#          Running this in MG4 will NEVER reproduce the result of MG5*
#                                                                    *
#*********************************************************************
#*********************************************************************
# Process(es) requested : mg2 input                                  *
#*********************************************************************
# Begin PROCESS # This is TAG. Do not modify this line
p p > n1 n1 j           #Process
# Be carefull the coupling are here in MG5 convention
          
end_coup           # End the couplings input

done               # this tells MG there are no more procs
# End PROCESS  # This is TAG. Do not modify this line
#*********************************************************************
# Model information                                                  *
#*********************************************************************
# Begin MODEL  # This is TAG. Do not modify this line
MSSM
# End   MODEL  # This is TAG. Do not modify this line
#*********************************************************************
# Start multiparticle definitions                                    *
#*********************************************************************
# Begin MULTIPARTICLES # This is TAG. Do not modify this line

# End  MULTIPARTICLES # This is TAG. Do not modify this line
</MGProcCard>
<MGRunCard>
<![CDATA[
#*********************************************************************
#                       MadGraph5_aMC@NLO                            *
#                                                                    *
#                     run_card.dat MadEvent                          *
#                                                                    *
#  This file is used to set the parameters of the run.               *
#                                                                    *
#  Some notation/conventions:                                        *
#                                                                    *
#   Lines starting with a '# ' are info or comments                  *
#                                                                    *
#   mind the format:   value    = variable     ! comment             *
#                                                                    *
#   To display more options, you can type the command:               *
#      update to_full                                                *
#*********************************************************************
#                                                                    
#*********************************************************************
# Tag name for the run (one word)                                    *
#*********************************************************************
  tag_1     = run_tag ! name of the run 
#*********************************************************************
# Number of events and rnd seed                                      *
# Warning: Do not generate more than 1M events in a single run       *
#*********************************************************************
  1000 = nevents ! Number of unweighted events requested 
 33 = iseed   ! rnd seed (0=assigned automatically=default))
#*********************************************************************
# Collider type and energy                                           *
# lpp: 0=No PDF, 1=proton, -1=antiproton, 2=elastic photon of proton,*
#             +/-3=PDF of electron/positron beam                     *
#             +/-4=PDF of muon/antimuon beam                         *
#*********************************************************************
     1        = lpp1    ! beam 1 type 
     1        = lpp2    ! beam 2 type
     6500.0     = ebeam1  ! beam 1 total energy in GeV
     6500.0     = ebeam2  ! beam 2 total energy in GeV
# To see polarised beam options: type "update beam_pol"

#*********************************************************************
# PDF CHOICE: this automatically fixes alpha_s and its evol.         *
# pdlabel: lhapdf=LHAPDF (installation needed) [1412.7420]           *
#          iww=Improved Weizsaecker-Williams Approx.[hep-ph/9310350] *
#          eva=Effective W/Z/A Approx.       [21yy.zzzzz]            *
#          none=No PDF, same as lhapdf with lppx=0                   *
#*********************************************************************
     nn23lo1    = pdlabel1     ! PDF type for beam #1
     nn23lo1    = pdlabel2     ! PDF type for beam #2
     230000    = lhaid     ! if pdlabel=lhapdf, this is the lhapdf number
# To see heavy ion options: type "update ion_pdf"
#*********************************************************************
# Renormalization and factorization scales                           *
#*********************************************************************
 False = fixed_ren_scale  ! if .true. use fixed ren scale
 False = fixed_fac_scale1  ! if .true. use fixed fac scale for beam 1
 False = fixed_fac_scale2  ! if .true. use fixed fac scale for beam 2
 91.188  = scale            ! fixed ren scale
 91.188  = dsqrt_q2fact1    ! fixed fact scale for pdf1
 91.188  = dsqrt_q2fact2    ! fixed fact scale for pdf2
 -1 = dynamical_scale_choice ! Choose one of the preselected dynamical choices
 1.0  = scalefact        ! scale factor for event-by-event scales

 
#*********************************************************************
# Type and output format
#*********************************************************************
  False     = gridpack  !True = setting up the grid pack
  -1.0 = time_of_flight ! threshold (in mm) below which the invariant livetime is not written (-1 means not written)
  average =  event_norm       ! average/sum. Normalization of the weight in the LHEF
# To see MLM/CKKW  merging options: type "update MLM" or "update CKKW"

#*********************************************************************
#
#*********************************************************************
# Phase-Space Optimization strategy (basic options)
#*********************************************************************
   0  = nhel          ! using helicities importance sampling or not.
                             ! 0: sum over helicity, 1: importance sampling
   2  = sde_strategy  ! default integration strategy (hep-ph/2021.00773)
                             ! 1 is old strategy (using amp square)
			     ! 2 is new strategy (using only the denominator)
# To see advanced option for Phase-Space optimization: type "update psoptim"			     
#*********************************************************************
# Generation bias, check the wiki page below for more information:   *
#  'cp3.irmp.ucl.ac.be/projects/madgraph/wiki/LOEventGenerationBias' *
#*********************************************************************
 None = bias_module  ! Bias type of bias, [None, ptj_bias, -custom_folder-]
 {} = bias_parameters ! Specifies the parameters of the module.
#
#*******************************                                                 
# Parton level cuts definition *
#*******************************
  0.0  = dsqrt_shat ! minimal shat for full process
#                                                                    
#
#*********************************************************************
# BW cutoff (M+/-bwcutoff*Gamma) ! Define on/off-shell for "$" and decay  
#*********************************************************************
  15.0  = bwcutoff      ! (M+/-bwcutoff*Gamma)
#*********************************************************************
# Standard Cuts                                                      *
#*********************************************************************
# Minimum and maximum pt's (for max, -1 means no cut)                *
#*********************************************************************
 20.0  = ptj       ! minimum pt for the jets 
 -1.0  = ptjmax    ! maximum pt for the jets
 {} = pt_min_pdg ! pt cut for other particles (use pdg code). Applied on particle and anti-particle
 {}	= pt_max_pdg ! pt cut for other particles (syntax e.g. {6: 100, 25: 50}) 
#
# For display option for energy cut in the partonic center of mass frame type 'update ecut'
#
#*********************************************************************
# Maximum and minimum absolute rapidity (for max, -1 means no cut)   *
#*********************************************************************
 5.0 = etaj    ! max rap for the jets 
 {} = eta_min_pdg ! rap cut for other particles (use pdg code). Applied on particle and anti-particle
 {} = eta_max_pdg ! rap cut for other particles (syntax e.g. {6: 2.5, 23: 5})
#*********************************************************************
# Minimum and maximum DeltaR distance                                *
#*********************************************************************
#*********************************************************************
# Minimum and maximum invariant mass for pairs                       *
#*********************************************************************
 {} = mxx_min_pdg ! min invariant mass of a pair of particles X/X~ (e.g. {6:250})
 {'default': False} = mxx_only_part_antipart ! if True the invariant mass is applied only 
                       ! to pairs of particle/antiparticle and not to pairs of the same pdg codes.  
#*********************************************************************
# Inclusive cuts                                                     *
#*********************************************************************
 0.0  = ptheavy   ! minimum pt for at least one heavy final state
#*********************************************************************
# maximal pdg code for quark to be considered as a light jet         *
# (otherwise b cuts are applied)                                     *
#*********************************************************************
 4 = maxjetflavor    ! Maximum jet pdg code
#*********************************************************************
#
#*********************************************************************
# Store info for systematics studies                                 *
# WARNING: Do not use for interference type of computation           *
#*********************************************************************
   True  = use_syst      ! Enable systematics studies
#
systematics = systematics_program ! none, systematics [python], SysCalc [depreceted, C++]
['--mur=0.5,1,2', '--muf=0.5,1,2', '--pdf=errorset'] = systematics_arguments ! see: https://cp3.irmp.ucl.ac.be/projects/madgraph/wiki/Systematics#Systematicspythonmodule
]]>
</MGRunCard>
<slha>
######################################################################
## PARAM_CARD AUTOMATICALY GENERATED BY MG5                       ####
######################################################################
###################################
## INFORMATION FOR SPINFO
###################################
BLOCK SPINFO #  program information
      1 sphenosarah # spectrum calculator
      2 v4.0.4 # version number of spheno
      9 4.14.1 # version number of sarah
###################################
## INFORMATION FOR MODSEL
###################################
BLOCK MODSEL #  input parameters
      1 0 # susy scale input
      2 1 # boundary conditions
      6 1 # switching on flavour violation
###################################
## INFORMATION FOR MINPAR
###################################
BLOCK MINPAR #  input parameters
      1 0.000000e+00 # m0
      2 0.000000e+00 # m12
      3 3.000000e+01 # tanbeta
      4 0.000000e+00 # signummu
      5 0.000000e+00 # azero
###################################
## INFORMATION FOR EXTPAR
###################################
BLOCK EXTPAR #  input parameters
      1 1.200000e+03 # m1input
      2 1.900000e+03 # m2input
      3 4.000000e+03 # m3input
      23 6.000000e+02 # muinput
      24 1.140000e+06 # ma2input
      25 3.000000e+01 # tanbeta
###################################
## INFORMATION FOR GAUGEGUT
###################################
BLOCK GAUGEGUT Q= 1.000000e+03 #  (gut scale)
      1 4.666800e-01 # g1(q)
      2 6.350258e-01 # g2(q)
      3 1.024549e+00 # g3(q)
###################################
## INFORMATION FOR SMINPUTS
###################################
BLOCK SMINPUTS #  sm parameters
      1 1.279320e+02 # alpha_em^-1(mz)^msbar
      2 1.166370e-05 # g_mu [gev^-2]
      3 1.300000e-01 # alpha_s(mz)^msbar
      4 9.118870e+01 # m_z(pole)
      5 4.180000e+00 # m_b(m_b), msbar
      6 1.720000e+02 # m_t(pole)
      7 1.776690e+00 # m_tau(pole)
###################################
## INFORMATION FOR VCKMIN
###################################
BLOCK VCKMIN #  ckm matrix, wolfenstein parameterization
      1 2.253500e-01 # lambda
      2 8.110000e-01 # a
      3 1.310000e-01 # rho bar
      4 3.450000e-01 # eta bar
###################################
## INFORMATION FOR VCKM
###################################
BLOCK VCKM Q= 1.000000e+03 #  re(ckm) at the susy scale
      1 1 9.741676e-01 # re(v_11)
      1 2 2.257981e-01 # re(v_12)
      1 3 3.552635e-03 # re(v_13)
      2 1 -2.257439e-01 # re(v_21)
      2 2 9.732687e-01 # re(v_22)
      2 3 4.228083e-02 # re(v_23)
      3 1 6.089262e-03 # re(v_31)
      3 2 -4.199060e-02 # re(v_32)
      3 3 9.990994e-01 # re(v_33)
###################################
## INFORMATION FOR GAUGE
###################################
BLOCK GAUGE Q= 1.000000e+03 #  (susy scale)
      1 3.614888e-01 # g1
      2 6.350258e-01 # g2
      3 1.024549e+00 # g3
###################################
## INFORMATION FOR HMIX
###################################
BLOCK HMIX Q= 1.000000e+03 #  (susy scale)
      1 6.000000e+02 # mu
      101 3.795782e+04 # bmu
      102 8.145831e+00 # vd
      103 2.443749e+02 # vu
      3 2.445107e+02 # v
      10 1.537476e+00 # betah
      11 -3.362220e-02 # alphah
###################################
## INFORMATION FOR IMHMIX
###################################
BLOCK IMHMIX Q= 1.000000e+03 #  (susy scale)
      1 0.000000e+00 # mu
      101 0.000000e+00 # bmu
###################################
## INFORMATION FOR MSOFT
###################################
BLOCK MSOFT Q= 1.000000e+03 #  (susy scale)
      21 7.827161e+05 # mhd2
      22 -3.627161e+05 # mhu2
      1 1.200000e+03 # m1
      2 1.900000e+03 # m2
      3 4.000000e+03 # m3
###################################
## INFORMATION FOR IMMSOFT
###################################
BLOCK IMMSOFT Q= 1.000000e+03 #  (susy scale)
      1 0.000000e+00 # m1
      2 0.000000e+00 # m2
      3 0.000000e+00 # m3
###################################
## INFORMATION FOR PHASES
###################################
BLOCK PHASES Q= 1.000000e+03 #  (susy scale)
      1 1.000000e+00 # pg
###################################
## INFORMATION FOR IMPHASES
###################################
BLOCK IMPHASES Q= 1.000000e+03 #  (susy scale)
      1 0.000000e+00 # pg
###################################
## INFORMATION FOR YD
###################################
BLOCK YD Q= 1.000000e+03 #  (susy scale)
      1 1 3.996152e-04 # real(yd(1,1),dp)
      1 2 4.699528e-20 # real(yd(1,2),dp)
      1 3 6.617445e-23 # real(yd(1,3),dp)
      2 1 -4.479526e-19 # real(yd(2,1),dp)
      2 2 7.594565e-03 # real(yd(2,2),dp)
      2 3 -5.082198e-21 # real(yd(2,3),dp)
      3 1 0.000000e+00 # real(yd(3,1),dp)
      3 2 0.000000e+00 # real(yd(3,2),dp)
      3 3 3.763428e-01 # real(yd(3,3),dp)
###################################
## INFORMATION FOR IMYD
###################################
BLOCK IMYD Q= 1.000000e+03 #  (susy scale)
      1 1 0.000000e+00 # aimag(yd(1,1))
      1 2 0.000000e+00 # aimag(yd(1,2))
      1 3 0.000000e+00 # aimag(yd(1,3))
      2 1 0.000000e+00 # aimag(yd(2,1))
      2 2 0.000000e+00 # aimag(yd(2,2))
      2 3 0.000000e+00 # aimag(yd(2,3))
      3 1 0.000000e+00 # aimag(yd(3,1))
      3 2 0.000000e+00 # aimag(yd(3,2))
      3 3 0.000000e+00 # aimag(yd(3,3))
###################################
## INFORMATION FOR YE
###################################
BLOCK YE Q= 1.000000e+03 #  (susy scale)
      1 1 9.094089e-05 # real(ye(1,1),dp)
      1 2 0.000000e+00 # real(ye(1,2),dp)
      1 3 0.000000e+00 # real(ye(1,3),dp)
      2 1 0.000000e+00 # real(ye(2,1),dp)
      2 2 1.880369e-02 # real(ye(2,2),dp)
      2 3 0.000000e+00 # real(ye(2,3),dp)
      3 1 0.000000e+00 # real(ye(3,1),dp)
      3 2 0.000000e+00 # real(ye(3,2),dp)
      3 3 3.161988e-01 # real(ye(3,3),dp)
###################################
## INFORMATION FOR IMYE
###################################
BLOCK IMYE Q= 1.000000e+03 #  (susy scale)
      1 1 0.000000e+00 # aimag(ye(1,1))
      1 2 0.000000e+00 # aimag(ye(1,2))
      1 3 0.000000e+00 # aimag(ye(1,3))
      2 1 0.000000e+00 # aimag(ye(2,1))
      2 2 0.000000e+00 # aimag(ye(2,2))
      2 3 0.000000e+00 # aimag(ye(2,3))
      3 1 0.000000e+00 # aimag(ye(3,1))
      3 2 0.000000e+00 # aimag(ye(3,2))
      3 3 0.000000e+00 # aimag(ye(3,3))
###################################
## INFORMATION FOR YU
###################################
BLOCK YU Q= 1.000000e+03 #  (susy scale)
      1 1 6.890704e-06 # real(yu(1,1),dp)
      1 2 1.149099e-20 # real(yu(1,2),dp)
      1 3 3.308722e-24 # real(yu(1,3),dp)
      2 1 -5.519267e-18 # real(yu(2,1),dp)
      2 2 3.447280e-03 # real(yu(2,2),dp)
      2 3 -2.710505e-20 # real(yu(2,3),dp)
      3 1 4.336809e-19 # real(yu(3,1),dp)
      3 2 0.000000e+00 # real(yu(3,2),dp)
      3 3 8.346910e-01 # real(yu(3,3),dp)
###################################
## INFORMATION FOR IMYU
###################################
BLOCK IMYU Q= 1.000000e+03 #  (susy scale)
      1 1 0.000000e+00 # aimag(yu(1,1))
      1 2 0.000000e+00 # aimag(yu(1,2))
      1 3 0.000000e+00 # aimag(yu(1,3))
      2 1 0.000000e+00 # aimag(yu(2,1))
      2 2 0.000000e+00 # aimag(yu(2,2))
      2 3 0.000000e+00 # aimag(yu(2,3))
      3 1 0.000000e+00 # aimag(yu(3,1))
      3 2 0.000000e+00 # aimag(yu(3,2))
      3 3 0.000000e+00 # aimag(yu(3,3))
###################################
## INFORMATION FOR TD
###################################
BLOCK TD Q= 1.000000e+03 #  (susy scale)
      1 1 0.000000e+00 # real(td(1,1),dp)
      1 2 0.000000e+00 # real(td(1,2),dp)
      1 3 0.000000e+00 # real(td(1,3),dp)
      2 1 0.000000e+00 # real(td(2,1),dp)
      2 2 0.000000e+00 # real(td(2,2),dp)
      2 3 0.000000e+00 # real(td(2,3),dp)
      3 1 0.000000e+00 # real(td(3,1),dp)
      3 2 0.000000e+00 # real(td(3,2),dp)
      3 3 0.000000e+00 # real(td(3,3),dp)
###################################
## INFORMATION FOR IMTD
###################################
BLOCK IMTD Q= 1.000000e+03 #  (susy scale)
      1 1 0.000000e+00 # aimag(td(1,1))
      1 2 0.000000e+00 # aimag(td(1,2))
      1 3 0.000000e+00 # aimag(td(1,3))
      2 1 0.000000e+00 # aimag(td(2,1))
      2 2 0.000000e+00 # aimag(td(2,2))
      2 3 0.000000e+00 # aimag(td(2,3))
      3 1 0.000000e+00 # aimag(td(3,1))
      3 2 0.000000e+00 # aimag(td(3,2))
      3 3 0.000000e+00 # aimag(td(3,3))
###################################
## INFORMATION FOR TE
###################################
BLOCK TE Q= 1.000000e+03 #  (susy scale)
      1 1 0.000000e+00 # real(te(1,1),dp)
      1 2 0.000000e+00 # real(te(1,2),dp)
      1 3 0.000000e+00 # real(te(1,3),dp)
      2 1 0.000000e+00 # real(te(2,1),dp)
      2 2 0.000000e+00 # real(te(2,2),dp)
      2 3 0.000000e+00 # real(te(2,3),dp)
      3 1 0.000000e+00 # real(te(3,1),dp)
      3 2 0.000000e+00 # real(te(3,2),dp)
      3 3 0.000000e+00 # real(te(3,3),dp)
###################################
## INFORMATION FOR IMTE
###################################
BLOCK IMTE Q= 1.000000e+03 #  (susy scale)
      1 1 0.000000e+00 # aimag(te(1,1))
      1 2 0.000000e+00 # aimag(te(1,2))
      1 3 0.000000e+00 # aimag(te(1,3))
      2 1 0.000000e+00 # aimag(te(2,1))
      2 2 0.000000e+00 # aimag(te(2,2))
      2 3 0.000000e+00 # aimag(te(2,3))
      3 1 0.000000e+00 # aimag(te(3,1))
      3 2 0.000000e+00 # aimag(te(3,2))
      3 3 0.000000e+00 # aimag(te(3,3))
###################################
## INFORMATION FOR TU
###################################
BLOCK TU Q= 1.000000e+03 #  (susy scale)
      1 1 -4.211374e-09 # real(tu(1,1),dp)
      1 2 -5.012188e-08 # real(tu(1,2),dp)
      1 3 -1.223416e-06 # real(tu(1,3),dp)
      2 1 -2.491280e-05 # real(tu(2,1),dp)
      2 2 -2.965010e-04 # real(tu(2,2),dp)
      2 3 -7.237237e-03 # real(tu(2,3),dp)
      3 1 1.100609e+01 # real(tu(3,1),dp)
      3 2 1.309895e+02 # real(tu(3,2),dp)
      3 3 3.197299e+03 # real(tu(3,3),dp)
###################################
## INFORMATION FOR IMTU
###################################
BLOCK IMTU Q= 1.000000e+03 #  (susy scale)
      1 1 0.000000e+00 # aimag(tu(1,1))
      1 2 0.000000e+00 # aimag(tu(1,2))
      1 3 0.000000e+00 # aimag(tu(1,3))
      2 1 0.000000e+00 # aimag(tu(2,1))
      2 2 0.000000e+00 # aimag(tu(2,2))
      2 3 0.000000e+00 # aimag(tu(2,3))
      3 1 0.000000e+00 # aimag(tu(3,1))
      3 2 0.000000e+00 # aimag(tu(3,2))
      3 3 0.000000e+00 # aimag(tu(3,3))
###################################
## INFORMATION FOR MSQ2
###################################
BLOCK MSQ2 Q= 1.000000e+03 #  (susy scale)
      1 1 7.600000e+06 # real(mq2(1,1),dp)
      1 2 7.299281e-02 # real(mq2(1,2),dp)
      1 3 -1.940226e+01 # real(mq2(1,3),dp)
      2 1 7.299281e-02 # real(mq2(2,1),dp)
      2 2 7.700000e+06 # real(mq2(2,2),dp)
      2 3 2.677087e+02 # real(mq2(2,3),dp)
      3 1 -1.940226e+01 # real(mq2(3,1),dp)
      3 2 2.677087e+02 # real(mq2(3,2),dp)
      3 3 7.500000e+06 # real(mq2(3,3),dp)
###################################
## INFORMATION FOR IMMSQ2
###################################
BLOCK IMMSQ2 Q= 1.000000e+03 #  (susy scale)
      1 1 0.000000e+00 # aimag(mq2(1,1))
      1 2 0.000000e+00 # aimag(mq2(1,2))
      1 3 0.000000e+00 # aimag(mq2(1,3))
      2 1 0.000000e+00 # aimag(mq2(2,1))
      2 2 0.000000e+00 # aimag(mq2(2,2))
      2 3 0.000000e+00 # aimag(mq2(2,3))
      3 1 0.000000e+00 # aimag(mq2(3,1))
      3 2 0.000000e+00 # aimag(mq2(3,2))
      3 3 0.000000e+00 # aimag(mq2(3,3))
###################################
## INFORMATION FOR MSL2
###################################
BLOCK MSL2 Q= 1.000000e+03 #  (susy scale)
      1 1 2.000000e+06 # real(ml2(1,1),dp)
      1 2 0.000000e+00 # real(ml2(1,2),dp)
      1 3 0.000000e+00 # real(ml2(1,3),dp)
      2 1 0.000000e+00 # real(ml2(2,1),dp)
      2 2 2.000000e+06 # real(ml2(2,2),dp)
      2 3 0.000000e+00 # real(ml2(2,3),dp)
      3 1 0.000000e+00 # real(ml2(3,1),dp)
      3 2 0.000000e+00 # real(ml2(3,2),dp)
      3 3 2.000000e+06 # real(ml2(3,3),dp)
###################################
## INFORMATION FOR IMMSL2
###################################
BLOCK IMMSL2 Q= 1.000000e+03 #  (susy scale)
      1 1 0.000000e+00 # aimag(ml2(1,1))
      1 2 0.000000e+00 # aimag(ml2(1,2))
      1 3 0.000000e+00 # aimag(ml2(1,3))
      2 1 0.000000e+00 # aimag(ml2(2,1))
      2 2 0.000000e+00 # aimag(ml2(2,2))
      2 3 0.000000e+00 # aimag(ml2(2,3))
      3 1 0.000000e+00 # aimag(ml2(3,1))
      3 2 0.000000e+00 # aimag(ml2(3,2))
      3 3 0.000000e+00 # aimag(ml2(3,3))
###################################
## INFORMATION FOR MSD2
###################################
BLOCK MSD2 Q= 1.000000e+03 #  (susy scale)
      1 1 7.500000e+06 # real(md2(1,1),dp)
      1 2 3.572655e-03 # real(md2(1,2),dp)
      1 3 5.828171e-02 # real(md2(1,3),dp)
      2 1 3.572655e-03 # real(md2(2,1),dp)
      2 2 7.600000e+06 # real(md2(2,2),dp)
      2 3 -5.094504e+00 # real(md2(2,3),dp)
      3 1 5.828171e-02 # real(md2(3,1),dp)
      3 2 -5.094504e+00 # real(md2(3,2),dp)
      3 3 7.800000e+06 # real(md2(3,3),dp)
###################################
## INFORMATION FOR IMMSD2
###################################
BLOCK IMMSD2 Q= 1.000000e+03 #  (susy scale)
      1 1 0.000000e+00 # aimag(md2(1,1))
      1 2 0.000000e+00 # aimag(md2(1,2))
      1 3 0.000000e+00 # aimag(md2(1,3))
      2 1 0.000000e+00 # aimag(md2(2,1))
      2 2 0.000000e+00 # aimag(md2(2,2))
      2 3 0.000000e+00 # aimag(md2(2,3))
      3 1 0.000000e+00 # aimag(md2(3,1))
      3 2 0.000000e+00 # aimag(md2(3,2))
      3 3 0.000000e+00 # aimag(md2(3,3))
###################################
## INFORMATION FOR MSU2
###################################
BLOCK MSU2 Q= 1.000000e+03 #  (susy scale)
      1 1 7.300000e+06 # real(mu2(1,1),dp)
      1 2 -8.646169e-11 # real(mu2(1,2),dp)
      1 3 3.826404e-05 # real(mu2(1,3),dp)
      2 1 -8.646168e-11 # real(mu2(2,1),dp)
      2 2 7.300000e+06 # real(mu2(2,2),dp)
      2 3 2.263547e-01 # real(mu2(2,3),dp)
      3 1 3.826404e-05 # real(mu2(3,1),dp)
      3 2 2.263547e-01 # real(mu2(3,2),dp)
      3 3 7.200000e+06 # real(mu2(3,3),dp)
###################################
## INFORMATION FOR IMMSU2
###################################
BLOCK IMMSU2 Q= 1.000000e+03 #  (susy scale)
      1 1 0.000000e+00 # aimag(mu2(1,1))
      1 2 0.000000e+00 # aimag(mu2(1,2))
      1 3 0.000000e+00 # aimag(mu2(1,3))
      2 1 0.000000e+00 # aimag(mu2(2,1))
      2 2 0.000000e+00 # aimag(mu2(2,2))
      2 3 0.000000e+00 # aimag(mu2(2,3))
      3 1 0.000000e+00 # aimag(mu2(3,1))
      3 2 0.000000e+00 # aimag(mu2(3,2))
      3 3 0.000000e+00 # aimag(mu2(3,3))
###################################
## INFORMATION FOR MSE2
###################################
BLOCK MSE2 Q= 1.000000e+03 #  (susy scale)
      1 1 2.000000e+06 # real(me2(1,1),dp)
      1 2 0.000000e+00 # real(me2(1,2),dp)
      1 3 0.000000e+00 # real(me2(1,3),dp)
      2 1 0.000000e+00 # real(me2(2,1),dp)
      2 2 2.000000e+06 # real(me2(2,2),dp)
      2 3 0.000000e+00 # real(me2(2,3),dp)
      3 1 0.000000e+00 # real(me2(3,1),dp)
      3 2 0.000000e+00 # real(me2(3,2),dp)
      3 3 2.000000e+06 # real(me2(3,3),dp)
###################################
## INFORMATION FOR IMMSE2
###################################
BLOCK IMMSE2 Q= 1.000000e+03 #  (susy scale)
      1 1 0.000000e+00 # aimag(me2(1,1))
      1 2 0.000000e+00 # aimag(me2(1,2))
      1 3 0.000000e+00 # aimag(me2(1,3))
      2 1 0.000000e+00 # aimag(me2(2,1))
      2 2 0.000000e+00 # aimag(me2(2,2))
      2 3 0.000000e+00 # aimag(me2(2,3))
      3 1 0.000000e+00 # aimag(me2(3,1))
      3 2 0.000000e+00 # aimag(me2(3,2))
      3 3 0.000000e+00 # aimag(me2(3,3))
###################################
## INFORMATION FOR MASS
###################################
BLOCK MASS #  mass spectrum
      1000001 2.612049e+03 # sd_1
      1000003 2.620735e+03 # sd_2
      1000005 2.631800e+03 # sd_3
      2000001 2.632100e+03 # sd_4
      2000003 2.651678e+03 # sd_5
      2000005 2.673924e+03 # sd_6
      1000002 2.480770e+03 # su_1
      1000004 2.570946e+03 # su_2
      1000006 2.570946e+03 # su_3
      2000002 2.630973e+03 # su_4
      2000004 2.650561e+03 # su_5
      2000006 2.713773e+03 # su_6
      1000011 1.405835e+03 # se_1
      1000013 1.418356e+03 # se_2
      1000015 1.418942e+03 # se_3
      2000011 1.419202e+03 # se_4
      2000013 1.419778e+03 # se_5
      2000015 1.429359e+03 # se_6
      1000012 1.415699e+03 # sv_1
      1000014 1.416650e+03 # sv_2
      1000016 1.416654e+03 # sv_3
      25 1.252581e+02 # hh_1
      35 1.749361e+03 # hh_2
      36 1.749342e+03 # ah_2
      37 1.770273e+03 # hpm_2
      22 0.000000e+00 # vp
      23 9.118870e+01 # vz
      21 0.000000e+00 # vg
      24 7.983012e+01 # vwm
      1 5.000000e-03 # fd_1
      3 9.500000e-02 # fd_2
      5 4.180000e+00 # fd_3
      2 2.500000e-03 # fu_1
      4 1.270000e+00 # fu_2
      6 1.720000e+02 # fu_3
      11 5.109989e-04 # fe_1
      13 1.056584e-01 # fe_2
      15 1.776690e+00 # fe_3
      12 0.000000e+00 # fv_1
      14 0.000000e+00 # fv_2
      16 0.000000e+00 # fv_3
      1000021 3.767031e+03 # glu
      1000022 6.125226e+02 # chi_1
      1000023 6.180543e+02 # chi_2
      1000025 1.208034e+03 # chi_3
      1000035 1.931531e+03 # chi_4
      1000024 6.156674e+02 # cha_1
      1000037 1.931730e+03 # cha_2
###################################
## INFORMATION FOR LSP
###################################
BLOCK LSP #  lsp and nlsp
      1 1.000022e+06 # lsp
      2 1.000024e+06 # nlsp
###################################
## INFORMATION FOR DSQMIX
###################################
BLOCK DSQMIX Q= 1.000000e+03 #  ()
      1 1 3.929470e-04 # real(zd(1,1),dp)
      1 2 4.738717e-09 # real(zd(1,2),dp)
      1 3 -1.560480e-06 # real(zd(1,3),dp)
      1 4 9.999999e-01 # real(zd(1,4),dp)
      1 5 4.126985e-11 # real(zd(1,5),dp)
      1 6 -1.853106e-07 # real(zd(1,6),dp)
      2 1 3.038532e-03 # real(zd(2,1),dp)
      2 2 -7.604698e-03 # real(zd(2,2),dp)
      2 3 -9.910557e-01 # real(zd(2,3),dp)
      2 4 -2.765152e-06 # real(zd(2,4),dp)
      2 5 -1.060624e-04 # real(zd(2,5),dp)
      2 6 -1.331975e-01 # real(zd(2,6),dp)
      3 1 -1.503919e-04 # real(zd(3,1),dp)
      3 2 -7.540868e-03 # real(zd(3,2),dp)
      3 3 1.608744e-04 # real(zd(3,3),dp)
      3 4 5.942898e-08 # real(zd(3,4),dp)
      3 5 -9.999715e-01 # real(zd(3,5),dp)
      3 6 2.637430e-05 # real(zd(3,6),dp)
      4 1 9.999953e-01 # real(zd(4,1),dp)
      4 2 1.052942e-04 # real(zd(4,2),dp)
      4 3 3.002233e-03 # real(zd(4,3),dp)
      4 4 -3.929404e-04 # real(zd(4,4),dp)
      4 5 -1.506942e-04 # real(zd(4,5),dp)
      4 6 4.681282e-04 # real(zd(4,6),dp)
      5 1 -8.327302e-05 # real(zd(5,1),dp)
      5 2 9.999423e-01 # real(zd(5,2),dp)
      5 3 -7.427282e-03 # real(zd(5,3),dp)
      5 4 1.605574e-08 # real(zd(5,4),dp)
      5 5 -7.541878e-03 # real(zd(5,5),dp)
      5 6 -1.823324e-03 # real(zd(5,6),dp)
      6 1 -6.412058e-05 # real(zd(6,1),dp)
      6 2 8.177298e-04 # real(zd(6,2),dp)
      6 3 -1.332082e-01 # real(zd(6,3),dp)
      6 4 9.823570e-10 # real(zd(6,4),dp)
      6 5 -1.447345e-06 # real(zd(6,5),dp)
      6 6 9.910877e-01 # real(zd(6,6),dp)
###################################
## INFORMATION FOR IMDSQMIX
###################################
BLOCK IMDSQMIX Q= 1.000000e+03 #  ()
      1 1 0.000000e+00 # aimag(zd(1,1))
      1 2 0.000000e+00 # aimag(zd(1,2))
      1 3 0.000000e+00 # aimag(zd(1,3))
      1 4 0.000000e+00 # aimag(zd(1,4))
      1 5 0.000000e+00 # aimag(zd(1,5))
      1 6 0.000000e+00 # aimag(zd(1,6))
      2 1 0.000000e+00 # aimag(zd(2,1))
      2 2 0.000000e+00 # aimag(zd(2,2))
      2 3 0.000000e+00 # aimag(zd(2,3))
      2 4 0.000000e+00 # aimag(zd(2,4))
      2 5 0.000000e+00 # aimag(zd(2,5))
      2 6 0.000000e+00 # aimag(zd(2,6))
      3 1 0.000000e+00 # aimag(zd(3,1))
      3 2 0.000000e+00 # aimag(zd(3,2))
      3 3 0.000000e+00 # aimag(zd(3,3))
      3 4 0.000000e+00 # aimag(zd(3,4))
      3 5 0.000000e+00 # aimag(zd(3,5))
      3 6 0.000000e+00 # aimag(zd(3,6))
      4 1 0.000000e+00 # aimag(zd(4,1))
      4 2 0.000000e+00 # aimag(zd(4,2))
      4 3 0.000000e+00 # aimag(zd(4,3))
      4 4 0.000000e+00 # aimag(zd(4,4))
      4 5 0.000000e+00 # aimag(zd(4,5))
      4 6 0.000000e+00 # aimag(zd(4,6))
      5 1 0.000000e+00 # aimag(zd(5,1))
      5 2 0.000000e+00 # aimag(zd(5,2))
      5 3 0.000000e+00 # aimag(zd(5,3))
      5 4 0.000000e+00 # aimag(zd(5,4))
      5 5 0.000000e+00 # aimag(zd(5,5))
      5 6 0.000000e+00 # aimag(zd(5,6))
      6 1 0.000000e+00 # aimag(zd(6,1))
      6 2 0.000000e+00 # aimag(zd(6,2))
      6 3 0.000000e+00 # aimag(zd(6,3))
      6 4 0.000000e+00 # aimag(zd(6,4))
      6 5 0.000000e+00 # aimag(zd(6,5))
      6 6 0.000000e+00 # aimag(zd(6,6))
###################################
## INFORMATION FOR SNUMIX
###################################
BLOCK SNUMIX Q= 1.000000e+03 #  ()
      1 1 0.000000e+00 # real(zv(1,1),dp)
      1 2 0.000000e+00 # real(zv(1,2),dp)
      1 3 1.000000e+00 # real(zv(1,3),dp)
      2 1 0.000000e+00 # real(zv(2,1),dp)
      2 2 1.000000e+00 # real(zv(2,2),dp)
      2 3 0.000000e+00 # real(zv(2,3),dp)
      3 1 1.000000e+00 # real(zv(3,1),dp)
      3 2 0.000000e+00 # real(zv(3,2),dp)
      3 3 0.000000e+00 # real(zv(3,3),dp)
###################################
## INFORMATION FOR IMSNUMIX
###################################
BLOCK IMSNUMIX Q= 1.000000e+03 #  ()
      1 1 0.000000e+00 # aimag(zv(1,1))
      1 2 0.000000e+00 # aimag(zv(1,2))
      1 3 0.000000e+00 # aimag(zv(1,3))
      2 1 0.000000e+00 # aimag(zv(2,1))
      2 2 0.000000e+00 # aimag(zv(2,2))
      2 3 0.000000e+00 # aimag(zv(2,3))
      3 1 0.000000e+00 # aimag(zv(3,1))
      3 2 0.000000e+00 # aimag(zv(3,2))
      3 3 0.000000e+00 # aimag(zv(3,3))
###################################
## INFORMATION FOR USQMIX
###################################
BLOCK USQMIX Q= 1.000000e+03 #  ()
      1 1 6.544743e-05 # real(zu(1,1),dp)
      1 2 -3.964562e-04 # real(zu(1,2),dp)
      1 3 6.326282e-01 # real(zu(1,3),dp)
      1 4 -2.177204e-09 # real(zu(1,4),dp)
      1 5 -1.194020e-05 # real(zu(1,5),dp)
      1 6 -7.744555e-01 # real(zu(1,6),dp)
      2 1 1.247650e-06 # real(zu(2,1),dp)
      2 2 2.059906e-07 # real(zu(2,2),dp)
      2 3 -3.164212e-10 # real(zu(2,3),dp)
      2 4 -1.000000e+00 # real(zu(2,4),dp)
      2 5 2.142552e-05 # real(zu(2,5),dp)
      2 6 2.222454e-09 # real(zu(2,6),dp)
      3 1 -1.442816e-04 # real(zu(3,1),dp)
      3 2 4.657037e-04 # real(zu(3,2),dp)
      3 3 2.524922e-09 # real(zu(3,3),dp)
      3 4 -2.142560e-05 # real(zu(3,4),dp)
      3 5 -9.999999e-01 # real(zu(3,5),dp)
      3 6 1.516901e-05 # real(zu(3,6),dp)
      4 1 -9.999996e-01 # real(zu(4,1),dp)
      4 2 -8.947779e-05 # real(zu(4,2),dp)
      4 3 7.144996e-04 # real(zu(4,3),dp)
      4 4 -1.244577e-06 # real(zu(4,4),dp)
      4 5 1.442475e-04 # real(zu(4,5),dp)
      4 6 4.991880e-04 # real(zu(4,6),dp)
      5 1 8.269191e-05 # real(zu(5,1),dp)
      5 2 -9.999702e-01 # real(zu(5,2),dp)
      5 3 -6.212042e-03 # real(zu(5,3),dp)
      5 4 -2.158688e-07 # real(zu(5,4),dp)
      5 5 -4.657710e-04 # real(zu(5,5),dp)
      5 6 -4.562505e-03 # real(zu(5,6),dp)
      6 1 -8.698123e-04 # real(zu(6,1),dp)
      6 2 7.697248e-03 # real(zu(6,2),dp)
      6 3 -7.744304e-01 # real(zu(6,3),dp)
      6 4 -7.867165e-10 # real(zu(6,4),dp)
      6 5 -5.887911e-06 # real(zu(6,5),dp)
      6 6 -6.326117e-01 # real(zu(6,6),dp)
###################################
## INFORMATION FOR IMUSQMIX
###################################
BLOCK IMUSQMIX Q= 1.000000e+03 #  ()
      1 1 0.000000e+00 # aimag(zu(1,1))
      1 2 0.000000e+00 # aimag(zu(1,2))
      1 3 0.000000e+00 # aimag(zu(1,3))
      1 4 0.000000e+00 # aimag(zu(1,4))
      1 5 0.000000e+00 # aimag(zu(1,5))
      1 6 0.000000e+00 # aimag(zu(1,6))
      2 1 0.000000e+00 # aimag(zu(2,1))
      2 2 0.000000e+00 # aimag(zu(2,2))
      2 3 0.000000e+00 # aimag(zu(2,3))
      2 4 0.000000e+00 # aimag(zu(2,4))
      2 5 0.000000e+00 # aimag(zu(2,5))
      2 6 0.000000e+00 # aimag(zu(2,6))
      3 1 0.000000e+00 # aimag(zu(3,1))
      3 2 0.000000e+00 # aimag(zu(3,2))
      3 3 0.000000e+00 # aimag(zu(3,3))
      3 4 0.000000e+00 # aimag(zu(3,4))
      3 5 0.000000e+00 # aimag(zu(3,5))
      3 6 0.000000e+00 # aimag(zu(3,6))
      4 1 0.000000e+00 # aimag(zu(4,1))
      4 2 0.000000e+00 # aimag(zu(4,2))
      4 3 0.000000e+00 # aimag(zu(4,3))
      4 4 0.000000e+00 # aimag(zu(4,4))
      4 5 0.000000e+00 # aimag(zu(4,5))
      4 6 0.000000e+00 # aimag(zu(4,6))
      5 1 0.000000e+00 # aimag(zu(5,1))
      5 2 0.000000e+00 # aimag(zu(5,2))
      5 3 0.000000e+00 # aimag(zu(5,3))
      5 4 0.000000e+00 # aimag(zu(5,4))
      5 5 0.000000e+00 # aimag(zu(5,5))
      5 6 0.000000e+00 # aimag(zu(5,6))
      6 1 0.000000e+00 # aimag(zu(6,1))
      6 2 0.000000e+00 # aimag(zu(6,2))
      6 3 0.000000e+00 # aimag(zu(6,3))
      6 4 0.000000e+00 # aimag(zu(6,4))
      6 5 0.000000e+00 # aimag(zu(6,5))
      6 6 0.000000e+00 # aimag(zu(6,6))
###################################
## INFORMATION FOR SELMIX
###################################
BLOCK SELMIX Q= 1.000000e+03 #  ()
      1 1 -0.000000e+00 # real(ze(1,1),dp)
      1 2 -0.000000e+00 # real(ze(1,2),dp)
      1 3 -6.921297e-01 # real(ze(1,3),dp)
      1 4 -0.000000e+00 # real(ze(1,4),dp)
      1 5 -0.000000e+00 # real(ze(1,5),dp)
      1 6 -7.217732e-01 # real(ze(1,6),dp)
      2 1 -0.000000e+00 # real(ze(2,1),dp)
      2 2 -6.976212e-01 # real(ze(2,2),dp)
      2 3 -0.000000e+00 # real(ze(2,3),dp)
      2 4 -0.000000e+00 # real(ze(2,4),dp)
      2 5 -7.164668e-01 # real(ze(2,5),dp)
      2 6 -0.000000e+00 # real(ze(2,6),dp)
      3 1 9.825905e-02 # real(ze(3,1),dp)
      3 2 0.000000e+00 # real(ze(3,2),dp)
      3 3 0.000000e+00 # real(ze(3,3),dp)
      3 4 9.951609e-01 # real(ze(3,4),dp)
      3 5 0.000000e+00 # real(ze(3,5),dp)
      3 6 0.000000e+00 # real(ze(3,6),dp)
      4 1 -9.951609e-01 # real(ze(4,1),dp)
      4 2 -0.000000e+00 # real(ze(4,2),dp)
      4 3 -0.000000e+00 # real(ze(4,3),dp)
      4 4 9.825905e-02 # real(ze(4,4),dp)
      4 5 -0.000000e+00 # real(ze(4,5),dp)
      4 6 -0.000000e+00 # real(ze(4,6),dp)
      5 1 0.000000e+00 # real(ze(5,1),dp)
      5 2 -7.164668e-01 # real(ze(5,2),dp)
      5 3 0.000000e+00 # real(ze(5,3),dp)
      5 4 0.000000e+00 # real(ze(5,4),dp)
      5 5 6.976212e-01 # real(ze(5,5),dp)
      5 6 0.000000e+00 # real(ze(5,6),dp)
      6 1 0.000000e+00 # real(ze(6,1),dp)
      6 2 0.000000e+00 # real(ze(6,2),dp)
      6 3 -7.217732e-01 # real(ze(6,3),dp)
      6 4 0.000000e+00 # real(ze(6,4),dp)
      6 5 0.000000e+00 # real(ze(6,5),dp)
      6 6 6.921297e-01 # real(ze(6,6),dp)
###################################
## INFORMATION FOR IMSELMIX
###################################
BLOCK IMSELMIX Q= 1.000000e+03 #  ()
      1 1 0.000000e+00 # aimag(ze(1,1))
      1 2 0.000000e+00 # aimag(ze(1,2))
      1 3 0.000000e+00 # aimag(ze(1,3))
      1 4 0.000000e+00 # aimag(ze(1,4))
      1 5 0.000000e+00 # aimag(ze(1,5))
      1 6 0.000000e+00 # aimag(ze(1,6))
      2 1 0.000000e+00 # aimag(ze(2,1))
      2 2 0.000000e+00 # aimag(ze(2,2))
      2 3 0.000000e+00 # aimag(ze(2,3))
      2 4 0.000000e+00 # aimag(ze(2,4))
      2 5 0.000000e+00 # aimag(ze(2,5))
      2 6 0.000000e+00 # aimag(ze(2,6))
      3 1 0.000000e+00 # aimag(ze(3,1))
      3 2 0.000000e+00 # aimag(ze(3,2))
      3 3 0.000000e+00 # aimag(ze(3,3))
      3 4 0.000000e+00 # aimag(ze(3,4))
      3 5 0.000000e+00 # aimag(ze(3,5))
      3 6 0.000000e+00 # aimag(ze(3,6))
      4 1 0.000000e+00 # aimag(ze(4,1))
      4 2 0.000000e+00 # aimag(ze(4,2))
      4 3 0.000000e+00 # aimag(ze(4,3))
      4 4 0.000000e+00 # aimag(ze(4,4))
      4 5 0.000000e+00 # aimag(ze(4,5))
      4 6 0.000000e+00 # aimag(ze(4,6))
      5 1 0.000000e+00 # aimag(ze(5,1))
      5 2 0.000000e+00 # aimag(ze(5,2))
      5 3 0.000000e+00 # aimag(ze(5,3))
      5 4 0.000000e+00 # aimag(ze(5,4))
      5 5 0.000000e+00 # aimag(ze(5,5))
      5 6 0.000000e+00 # aimag(ze(5,6))
      6 1 0.000000e+00 # aimag(ze(6,1))
      6 2 0.000000e+00 # aimag(ze(6,2))
      6 3 0.000000e+00 # aimag(ze(6,3))
      6 4 0.000000e+00 # aimag(ze(6,4))
      6 5 0.000000e+00 # aimag(ze(6,5))
      6 6 0.000000e+00 # aimag(ze(6,6))
###################################
## INFORMATION FOR SCALARMIX
###################################
BLOCK SCALARMIX Q= 1.000000e+03 #  ()
      1 1 -3.361587e-02 # zh(1,1)
      1 2 -9.994348e-01 # zh(1,2)
      2 1 -9.994348e-01 # zh(2,1)
      2 2 3.361587e-02 # zh(2,2)
###################################
## INFORMATION FOR PSEUDOSCALARMIX
###################################
BLOCK PSEUDOSCALARMIX Q= 1.000000e+03 #  ()
      1 1 3.331421e-02 # za(1,1)
      1 2 -9.994449e-01 # za(1,2)
      2 1 -9.994449e-01 # za(2,1)
      2 2 -3.331421e-02 # za(2,2)
###################################
## INFORMATION FOR CHARGEMIX
###################################
BLOCK CHARGEMIX Q= 1.000000e+03 #  ()
      1 1 3.331438e-02 # zp(1,1)
      1 2 -9.994449e-01 # zp(1,2)
      2 1 -9.994449e-01 # zp(2,1)
      2 2 -3.331438e-02 # zp(2,2)
###################################
## INFORMATION FOR NMIX
###################################
BLOCK NMIX Q= 1.000000e+03 #  ()
      1 1 -5.387374e-02 # real(zn(1,1),dp)
      1 2 4.271800e-02 # real(zn(1,2),dp)
      1 3 -7.075709e-01 # real(zn(1,3),dp)
      1 4 7.032896e-01 # real(zn(1,4),dp)
      2 1 -0.000000e+00 # real(zn(2,1),dp)
      2 2 0.000000e+00 # real(zn(2,2),dp)
      2 3 0.000000e+00 # real(zn(2,3),dp)
      2 4 0.000000e+00 # real(zn(2,4),dp)
      3 1 9.984071e-01 # real(zn(3,1),dp)
      3 2 5.602465e-03 # real(zn(3,2),dp)
      3 3 -2.647008e-02 # real(zn(3,3),dp)
      3 4 4.950897e-02 # real(zn(3,4),dp)
      4 1 2.948779e-03 # real(zn(4,1),dp)
      4 2 -9.988503e-01 # real(zn(4,2),dp)
      4 3 -1.555129e-02 # real(zn(4,3),dp)
      4 4 4.525035e-02 # real(zn(4,4),dp)
###################################
## INFORMATION FOR IMNMIX
###################################
BLOCK IMNMIX Q= 1.000000e+03 #  ()
      1 1 0.000000e+00 # aimag(zn(1,1))
      1 2 0.000000e+00 # aimag(zn(1,2))
      1 3 0.000000e+00 # aimag(zn(1,3))
      1 4 0.000000e+00 # aimag(zn(1,4))
      2 1 -1.649592e-02 # aimag(zn(2,1))
      2 2 2.102183e-02 # aimag(zn(2,2))
      2 3 7.059752e-01 # aimag(zn(2,3))
      2 4 7.077323e-01 # aimag(zn(2,4))
      3 1 0.000000e+00 # aimag(zn(3,1))
      3 2 0.000000e+00 # aimag(zn(3,2))
      3 3 0.000000e+00 # aimag(zn(3,3))
      3 4 0.000000e+00 # aimag(zn(3,4))
      4 1 0.000000e+00 # aimag(zn(4,1))
      4 2 0.000000e+00 # aimag(zn(4,2))
      4 3 0.000000e+00 # aimag(zn(4,3))
      4 4 0.000000e+00 # aimag(zn(4,4))
###################################
## INFORMATION FOR UMIX
###################################
BLOCK UMIX Q= 1.000000e+03 #  ()
      1 1 2.197464e-02 # real(um(1,1),dp)
      1 2 -9.997585e-01 # real(um(1,2),dp)
      2 1 -9.997585e-01 # real(um(2,1),dp)
      2 2 -2.197464e-02 # real(um(2,2),dp)
###################################
## INFORMATION FOR IMUMIX
###################################
BLOCK IMUMIX Q= 1.000000e+03 #  ()
      1 1 -0.000000e+00 # aimag(um(1,1))
      1 2 -0.000000e+00 # aimag(um(1,2))
      2 1 -0.000000e+00 # aimag(um(2,1))
      2 2 -0.000000e+00 # aimag(um(2,2))
###################################
## INFORMATION FOR VMIX
###################################
BLOCK VMIX Q= 1.000000e+03 #  ()
      1 1 6.393703e-02 # real(up(1,1),dp)
      1 2 -9.979539e-01 # real(up(1,2),dp)
      2 1 -9.979539e-01 # real(up(2,1),dp)
      2 2 -6.393703e-02 # real(up(2,2),dp)
###################################
## INFORMATION FOR IMVMIX
###################################
BLOCK IMVMIX Q= 1.000000e+03 #  ()
      1 1 0.000000e+00 # aimag(up(1,1))
      1 2 0.000000e+00 # aimag(up(1,2))
      2 1 0.000000e+00 # aimag(up(2,1))
      2 2 0.000000e+00 # aimag(up(2,2))
###################################
## INFORMATION FOR UELMIX
###################################
BLOCK UELMIX Q= 1.000000e+03 #  ()
      1 1 1.000000e+00 # real(zel(1,1),dp)
      1 2 0.000000e+00 # real(zel(1,2),dp)
      1 3 0.000000e+00 # real(zel(1,3),dp)
      2 1 0.000000e+00 # real(zel(2,1),dp)
      2 2 1.000000e+00 # real(zel(2,2),dp)
      2 3 0.000000e+00 # real(zel(2,3),dp)
      3 1 0.000000e+00 # real(zel(3,1),dp)
      3 2 0.000000e+00 # real(zel(3,2),dp)
      3 3 1.000000e+00 # real(zel(3,3),dp)
###################################
## INFORMATION FOR IMUELMIX
###################################
BLOCK IMUELMIX Q= 1.000000e+03 #  ()
      1 1 0.000000e+00 # aimag(zel(1,1))
      1 2 0.000000e+00 # aimag(zel(1,2))
      1 3 0.000000e+00 # aimag(zel(1,3))
      2 1 0.000000e+00 # aimag(zel(2,1))
      2 2 0.000000e+00 # aimag(zel(2,2))
      2 3 0.000000e+00 # aimag(zel(2,3))
      3 1 0.000000e+00 # aimag(zel(3,1))
      3 2 0.000000e+00 # aimag(zel(3,2))
      3 3 0.000000e+00 # aimag(zel(3,3))
###################################
## INFORMATION FOR UERMIX
###################################
BLOCK UERMIX Q= 1.000000e+03 #  ()
      1 1 1.000000e+00 # real(zer(1,1),dp)
      1 2 0.000000e+00 # real(zer(1,2),dp)
      1 3 0.000000e+00 # real(zer(1,3),dp)
      2 1 0.000000e+00 # real(zer(2,1),dp)
      2 2 1.000000e+00 # real(zer(2,2),dp)
      2 3 0.000000e+00 # real(zer(2,3),dp)
      3 1 0.000000e+00 # real(zer(3,1),dp)
      3 2 0.000000e+00 # real(zer(3,2),dp)
      3 3 1.000000e+00 # real(zer(3,3),dp)
###################################
## INFORMATION FOR IMUERMIX
###################################
BLOCK IMUERMIX Q= 1.000000e+03 #  ()
      1 1 0.000000e+00 # aimag(zer(1,1))
      1 2 0.000000e+00 # aimag(zer(1,2))
      1 3 0.000000e+00 # aimag(zer(1,3))
      2 1 0.000000e+00 # aimag(zer(2,1))
      2 2 0.000000e+00 # aimag(zer(2,2))
      2 3 0.000000e+00 # aimag(zer(2,3))
      3 1 0.000000e+00 # aimag(zer(3,1))
      3 2 0.000000e+00 # aimag(zer(3,2))
      3 3 0.000000e+00 # aimag(zer(3,3))
###################################
## INFORMATION FOR UDLMIX
###################################
BLOCK UDLMIX Q= 1.000000e+03 #  ()
      1 1 1.000000e+00 # real(zdl(1,1),dp)
      1 2 4.702195e-07 # real(zdl(1,2),dp)
      1 3 1.940234e-04 # real(zdl(1,3),dp)
      2 1 -2.105101e-07 # real(zdl(2,1),dp)
      2 2 9.999991e-01 # real(zdl(2,2),dp)
      2 3 -1.338545e-03 # real(zdl(2,3),dp)
      3 1 -1.940239e-04 # real(zdl(3,1),dp)
      3 2 1.338545e-03 # real(zdl(3,2),dp)
      3 3 9.999991e-01 # real(zdl(3,3),dp)
###################################
## INFORMATION FOR IMUDLMIX
###################################
BLOCK IMUDLMIX Q= 1.000000e+03 #  ()
      1 1 0.000000e+00 # aimag(zdl(1,1))
      1 2 0.000000e+00 # aimag(zdl(1,2))
      1 3 0.000000e+00 # aimag(zdl(1,3))
      2 1 -0.000000e+00 # aimag(zdl(2,1))
      2 2 0.000000e+00 # aimag(zdl(2,2))
      2 3 -0.000000e+00 # aimag(zdl(2,3))
      3 1 -0.000000e+00 # aimag(zdl(3,1))
      3 2 0.000000e+00 # aimag(zdl(3,2))
      3 3 0.000000e+00 # aimag(zdl(3,3))
###################################
## INFORMATION FOR UDRMIX
###################################
BLOCK UDRMIX Q= 1.000000e+03 #  ()
      1 1 1.000000e+00 # real(zdr(1,1),dp)
      1 2 3.574139e-08 # real(zdr(1,2),dp)
      1 3 1.942721e-07 # real(zdr(1,3),dp)
      2 1 -3.573644e-08 # real(zdr(2,1),dp)
      2 2 1.000000e+00 # real(zdr(2,2),dp)
      2 3 -2.547252e-05 # real(zdr(2,3),dp)
      3 1 -1.942730e-07 # real(zdr(3,1),dp)
      3 2 2.547252e-05 # real(zdr(3,2),dp)
      3 3 1.000000e+00 # real(zdr(3,3),dp)
###################################
## INFORMATION FOR IMUDRMIX
###################################
BLOCK IMUDRMIX Q= 1.000000e+03 #  ()
      1 1 0.000000e+00 # aimag(zdr(1,1))
      1 2 0.000000e+00 # aimag(zdr(1,2))
      1 3 0.000000e+00 # aimag(zdr(1,3))
      2 1 0.000000e+00 # aimag(zdr(2,1))
      2 2 0.000000e+00 # aimag(zdr(2,2))
      2 3 0.000000e+00 # aimag(zdr(2,3))
      3 1 0.000000e+00 # aimag(zdr(3,1))
      3 2 0.000000e+00 # aimag(zdr(3,2))
      3 3 0.000000e+00 # aimag(zdr(3,3))
###################################
## INFORMATION FOR UULMIX
###################################
BLOCK UULMIX Q= 1.000000e+03 #  ()
      1 1 9.741669e-01 # real(zul(1,1),dp)
      1 2 2.258031e-01 # real(zul(1,2),dp)
      1 3 3.439403e-03 # real(zul(1,3),dp)
      2 1 -2.257523e-01 # real(zul(2,1),dp)
      2 2 9.733243e-01 # real(zul(2,2),dp)
      2 3 4.093423e-02 # real(zul(2,3),dp)
      3 1 5.895422e-03 # real(zul(3,1),dp)
      3 2 -4.065323e-02 # real(zul(3,2),dp)
      3 3 9.991559e-01 # real(zul(3,3),dp)
###################################
## INFORMATION FOR IMUULMIX
###################################
BLOCK IMUULMIX Q= 1.000000e+03 #  ()
      1 1 -0.000000e+00 # aimag(zul(1,1))
      1 2 -0.000000e+00 # aimag(zul(1,2))
      1 3 -0.000000e+00 # aimag(zul(1,3))
      2 1 0.000000e+00 # aimag(zul(2,1))
      2 2 0.000000e+00 # aimag(zul(2,2))
      2 3 0.000000e+00 # aimag(zul(2,3))
      3 1 0.000000e+00 # aimag(zul(3,1))
      3 2 -0.000000e+00 # aimag(zul(3,2))
      3 3 0.000000e+00 # aimag(zul(3,3))
###################################
## INFORMATION FOR UURMIX
###################################
BLOCK UURMIX Q= 1.000000e+03 #  ()
      1 1 1.000000e+00 # real(zur(1,1),dp)
      1 2 1.106900e-08 # real(zur(1,2),dp)
      1 3 -3.826404e-10 # real(zur(1,3),dp)
      2 1 -1.106900e-08 # real(zur(2,1),dp)
      2 2 1.000000e+00 # real(zur(2,2),dp)
      2 3 -2.263547e-06 # real(zur(2,3),dp)
      3 1 3.826153e-10 # real(zur(3,1),dp)
      3 2 2.263547e-06 # real(zur(3,2),dp)
      3 3 1.000000e+00 # real(zur(3,3),dp)
###################################
## INFORMATION FOR IMUURMIX
###################################
BLOCK IMUURMIX Q= 1.000000e+03 #  ()
      1 1 0.000000e+00 # aimag(zur(1,1))
      1 2 0.000000e+00 # aimag(zur(1,2))
      1 3 0.000000e+00 # aimag(zur(1,3))
      2 1 0.000000e+00 # aimag(zur(2,1))
      2 2 0.000000e+00 # aimag(zur(2,2))
      2 3 0.000000e+00 # aimag(zur(2,3))
      3 1 0.000000e+00 # aimag(zur(3,1))
      3 2 0.000000e+00 # aimag(zur(3,2))
      3 3 0.000000e+00 # aimag(zur(3,3))
###################################
## INFORMATION FOR SPHENO
###################################
BLOCK SPHENO #  spheno internal parameters
      1 -1.000000e+00 # errorlevel
      2 0.000000e+00 # spa_conventions
      11 1.000000e+00 # branching ratios
      13 1.000000e+00 # 3 body decays
      31 1.000000e+03 # gut scale
      33 1.000000e+03 # renormalization scale
      34 1.000000e-04 # precision
      35 4.000000e+01 # iterations
      38 2.000000e+00 # rge level
      40 7.297353e-03 # alpha
      41 2.495200e+00 # gamma_z
      42 2.060000e+00 # gamma_w
      50 1.000000e+00 # rotate negative fermion masses
      51 1.000000e+00 # switch to sckm matrix
      52 0.000000e+00 # ignore negative masses
      53 0.000000e+00 # ignore negative masses at mz
      55 1.000000e+00 # calculate one loop masses
      56 1.000000e+00 # calculate two-loop higgs masses
      57 0.000000e+00 # calculate low energy
      60 1.000000e+00 # include kinetic mixing
      65 1.000000e+00 # solution of tadpole equation
      8 3.000000e+00 # two-loop method: diagrammatic
      9 1.000000e+00 # gauge-less limit
      400 1.000000e-01 # step-size for purely-numerical methode for 2-loop calculation
      401 1.000000e-03 # step-size for semi-analytical methode for 2-loop calculation
      410 0.000000e+00 # indicative error in numerical derivation
###################################
## INFORMATION FOR HIGGSLHC7
###################################
BLOCK HIGGSLHC7 #  higgs production cross section at lhc7 [pb] (rescaled sm values from hxswg)
      1 25 1.529275e+01 # gluon fusion
      2 25 1.206185e+00 # vector boson fusion
      3 25 5.370510e-01 # w-h production
      4 25 3.143380e-01 # z-h production
      5 25 8.558397e-02 # t-t-h production
###################################
## INFORMATION FOR HIGGSLHC8
###################################
BLOCK HIGGSLHC8 #  higgs production cross section at lhc8 [pb] (rescaled sm values from hxswg)
      1 25 1.946808e+01 # gluon fusion
      2 25 1.555409e+00 # vector boson fusion
      3 25 6.890430e-01 # w-h production
      4 25 3.926287e-01 # z-h production
      5 25 1.295605e-01 # t-t-h production
###################################
## INFORMATION FOR HIGGSLHC13
###################################
BLOCK HIGGSLHC13 #  higgs production cross section at lhc13 [pb] (rescaled sm values from sushi 1.5.0)
      1 25 4.549782e+01 # gluon fusion
###################################
## INFORMATION FOR HIGGSLHC14
###################################
BLOCK HIGGSLHC14 #  higgs production cross section at lhc14 [pb] (rescaled sm values from sushi 1.5.0)
      1 25 5.123748e+01 # gluon fusion
###################################
## INFORMATION FOR HIGGSFCC100
###################################
BLOCK HIGGSFCC100 #  higgs production cross section at fcc-pp [pb] (rescaled sm values from sushi 1.5.0)
      1 25 7.553492e+02 # gluon fusion
###################################
## INFORMATION FOR EFFHIGGSCOUPLINGS
###################################
BLOCK EFFHIGGSCOUPLINGS #  values of loop-induced couplings
      25 22 22 3.526476e-05 # h-photon-photon
      25 21 21 6.426587e-05 # h-gluon-gluon
      25 22 23 0.000000e+00 # h-photon-z (not yet calculated by spheno)
      35 22 22 2.006280e-07 # h-photon-photon
      35 21 21 6.540043e-07 # h-gluon-gluon
      35 22 23 0.000000e+00 # h-photon-z (not yet calculated by spheno)
      36 22 22 3.135449e-07 # a-photon-photon
      36 21 21 1.441225e-06 # a-gluon-gluon
      36 22 23 0.000000e+00 # a-photon-z (not yet calculated by spheno)
###################################
## INFORMATION FOR SPHENOLOWENERGY
###################################
BLOCK SPHENOLOWENERGY #  low energy observables
      1 0.000000e+00 # t-parameter (1-loop bsm)
      2 0.000000e+00 # s-parameter (1-loop bsm)
      3 0.000000e+00 # u-parameter (1-loop bsm)
      20 0.000000e+00 # (g-2)_e
      21 0.000000e+00 # (g-2)_mu
      22 0.000000e+00 # (g-2)_tau
      23 0.000000e+00 # edm(e)
      24 0.000000e+00 # edm(mu)
      25 0.000000e+00 # edm(tau)
      39 0.000000e+00 # delta(rho)
###################################
## INFORMATION FOR FLAVORKITQFV
###################################
BLOCK FLAVORKITQFV #  quark flavor violating observables
      200 0.000000e+00 # br(b->x_s gamma)
      201 0.000000e+00 # br(b->x_s gamma)/br(b->x_s gamma)_sm
      300 0.000000e+00 # br(d->mu nu)
      301 0.000000e+00 # br(d->mu nu)/br(d->mu nu)_sm
      400 0.000000e+00 # br(ds->mu nu)
      401 0.000000e+00 # br(ds->mu nu)/br(ds->mu nu)_sm
      402 0.000000e+00 # br(ds->tau nu)
      403 0.000000e+00 # br(ds->tau nu)/br(ds->tau nu)_sm
      500 0.000000e+00 # br(b->mu nu)
      501 0.000000e+00 # br(b->mu nu)/br(b->mu nu)_sm
      502 0.000000e+00 # br(b->tau nu)
      503 0.000000e+00 # br(b->tau nu)/br(b->tau nu)_sm
      600 0.000000e+00 # br(k->mu nu)
      601 0.000000e+00 # br(k->mu nu)/br(k->mu nu)_sm
      602 0.000000e+00 # r_k = br(k->e nu)/(k->mu nu)
      603 0.000000e+00 # r_k^sm = br(k->e nu)_sm/(k->mu nu)_sm
      1900 0.000000e+00 # delta(m_bs)
      1901 0.000000e+00 # delta(m_bs)/delta(m_bs)_sm
      1902 0.000000e+00 # delta(m_bd)
      1903 0.000000e+00 # delta(m_bd)/delta(m_bd)_sm
      4000 0.000000e+00 # br(b^0_d->e e)
      4001 0.000000e+00 # br(b^0_d->e e)/br(b^0_d->e e)_sm
      4002 0.000000e+00 # br(b^0_s->e e)
      4003 0.000000e+00 # br(b^0_s->e e)/br(b^0_s->e e)_sm
      4004 0.000000e+00 # br(b^0_d->mu mu)
      4005 0.000000e+00 # br(b^0_d->mu mu)/br(b^0_d->mu mu)_sm
      4006 0.000000e+00 # br(b^0_s->mu mu)
      4007 0.000000e+00 # br(b^0_s->mu mu)/br(b^0_s->mu mu)_sm
      4008 0.000000e+00 # br(b^0_d->tau tau)
      4009 0.000000e+00 # br(b^0_d->tau tau)/br(b^0_d->tau tau)_sm
      4010 0.000000e+00 # br(b^0_s->tau tau)
      4011 0.000000e+00 # br(b^0_s->tau tau)/br(b^0_s->tau tau)_sm
      5000 0.000000e+00 # br(b-> s e e)
      5001 0.000000e+00 # br(b-> s e e)/br(b-> s e e)_sm
      5002 0.000000e+00 # br(b-> s mu mu)
      5003 0.000000e+00 # br(b-> s mu mu)/br(b-> s mu mu)_sm
      6000 0.000000e+00 # br(b -> k mu mu)
      6001 0.000000e+00 # br(b -> k mu mu)/br(b -> k mu mu)_sm
      6002 0.000000e+00 # br(b -> k mu mu)
      6003 0.000000e+00 # br(b -> k mu mu)/br(b -> k mu mu)_sm
      7000 0.000000e+00 # br(b->s nu nu)
      7001 0.000000e+00 # br(b->s nu nu)/br(b->s nu nu)_sm
      7002 0.000000e+00 # br(b->d nu nu)
      7003 0.000000e+00 # br(b->d nu nu)/br(b->d nu nu)_sm
      8000 0.000000e+00 # br(k^+ -> pi^+ nu nu)
      8001 0.000000e+00 # br(k^+ -> pi^+ nu nu)/br(k^+ -> pi^+ nu nu)_sm
      8002 0.000000e+00 # br(k_l -> pi^0 nu nu)
      8003 0.000000e+00 # br(k_l -> pi^0 nu nu)/br(k_l -> pi^0 nu nu)_sm
      8004 0.000000e+00 # br(k^0_l -> e mu)
      8005 0.000000e+00 # br(k^0_l -> e mu)/br(k^0_l -> e mu)_sm
      9100 0.000000e+00 # delta(m_k)
      9102 0.000000e+00 # delta(m_k)/delta(m_k)_sm
      9103 0.000000e+00 # epsilon_k
      9104 0.000000e+00 # epsilon_k/epsilon_k^sm
###################################
## INFORMATION FOR FLAVORKITLFV
###################################
BLOCK FLAVORKITLFV #  lepton flavor violating observables
      701 0.000000e+00 # br(mu->e gamma)
      702 0.000000e+00 # br(tau->e gamma)
      703 0.000000e+00 # br(tau->mu gamma)
      800 0.000000e+00 # cr(mu-e, al)
      801 0.000000e+00 # cr(mu-e, ti)
      802 0.000000e+00 # cr(mu-e, sr)
      803 0.000000e+00 # cr(mu-e, sb)
      804 0.000000e+00 # cr(mu-e, au)
      805 0.000000e+00 # cr(mu-e, pb)
      901 0.000000e+00 # br(mu->3e)
      902 0.000000e+00 # br(tau->3e)
      903 0.000000e+00 # br(tau->3mu)
      904 0.000000e+00 # br(tau- -> e- mu+ mu-)
      905 0.000000e+00 # br(tau- -> mu- e+ e-)
      906 0.000000e+00 # br(tau- -> e+ mu- mu-)
      907 0.000000e+00 # br(tau- -> mu+ e- e-)
      1001 0.000000e+00 # br(z->e mu)
      1002 0.000000e+00 # br(z->e tau)
      1003 0.000000e+00 # br(z->mu tau)
      1101 0.000000e+00 # br(h->e mu)
      1102 0.000000e+00 # br(h->e tau)
      1103 0.000000e+00 # br(h->mu tau)
      2001 0.000000e+00 # br(tau->e pi)
      2002 0.000000e+00 # br(tau->e eta)
      2003 0.000000e+00 # br(tau->e eta')
      2004 0.000000e+00 # br(tau->mu pi)
      2005 0.000000e+00 # br(tau->mu eta)
      2006 0.000000e+00 # br(tau->mu eta')
###################################
## INFORMATION FOR FWCOEF
###################################
BLOCK FWCOEF Q= 1.600000e+02 #  wilson coefficients at scale q
      305 4422 0 0 0.000000e+00 # coeffc7sm
      305 4422 0 2 0.000000e+00 # coeffc7
      305 4322 0 2 0.000000e+00 # coeffc7p
      305 4422 0 1 0.000000e+00 # coeffc7np
      305 4322 0 1 0.000000e+00 # coeffc7pnp
      305 6421 0 0 0.000000e+00 # coeffc8sm
      305 6421 0 2 0.000000e+00 # coeffc8
      305 6321 0 2 0.000000e+00 # coeffc8p
      305 6421 0 1 0.000000e+00 # coeffc8np
      305 6321 0 1 0.000000e+00 # coeffc8pnp
      3051111 4133 0 0 0.000000e+00 # coeffc9eesm
      3051111 4133 0 2 0.000000e+00 # coeffc9ee
      3051111 4233 0 2 0.000000e+00 # coeffc9pee
      3051111 4133 0 1 0.000000e+00 # coeffc9eenp
      3051111 4233 0 1 0.000000e+00 # coeffc9peenp
      3051111 4137 0 0 0.000000e+00 # coeffc10eesm
      3051111 4137 0 2 0.000000e+00 # coeffc10ee
      3051111 4237 0 2 0.000000e+00 # coeffc10pee
      3051111 4137 0 1 0.000000e+00 # coeffc10eenp
      3051111 4237 0 1 0.000000e+00 # coeffc10peenp
      3051313 4133 0 0 0.000000e+00 # coeffc9mumusm
      3051313 4133 0 2 0.000000e+00 # coeffc9mumu
      3051313 4233 0 2 0.000000e+00 # coeffc9pmumu
      3051313 4133 0 1 0.000000e+00 # coeffc9mumunp
      3051313 4233 0 1 0.000000e+00 # coeffc9pmumunp
      3051313 4137 0 0 0.000000e+00 # coeffc10mumusm
      3051313 4137 0 2 0.000000e+00 # coeffc10mumu
      3051313 4237 0 2 0.000000e+00 # coeffc10pmumu
      3051313 4137 0 1 0.000000e+00 # coeffc10mumunp
      3051313 4237 0 1 0.000000e+00 # coeffc10pmumunp
      3051212 4141 0 0 0.000000e+00 # coeffclnu1nu1sm
      3051212 4141 0 2 0.000000e+00 # coeffclnu1nu1
      3051212 4241 0 2 0.000000e+00 # coeffclpnu1nu1
      3051212 4141 0 1 0.000000e+00 # coeffclnu1nu1np
      3051212 4241 0 1 0.000000e+00 # coeffclpnu1nu1np
      3051414 4141 0 0 0.000000e+00 # coeffclnu2nu2sm
      3051414 4141 0 2 0.000000e+00 # coeffclnu2nu2
      3051414 4241 0 2 0.000000e+00 # coeffclpnu2nu2
      3051414 4141 0 1 0.000000e+00 # coeffclnu2nu2np
      3051414 4241 0 1 0.000000e+00 # coeffclpnu2nu2np
      3051616 4141 0 0 0.000000e+00 # coeffclnu3nu3sm
      3051616 4141 0 2 0.000000e+00 # coeffclnu3nu3
      3051616 4241 0 2 0.000000e+00 # coeffclpnu3nu3
      3051616 4141 0 1 0.000000e+00 # coeffclnu3nu3np
      3051616 4241 0 1 0.000000e+00 # coeffclpnu3nu3np
      3051212 4142 0 0 0.000000e+00 # coeffcrnu1nu1sm
      3051212 4142 0 2 0.000000e+00 # coeffcrnu1nu1
      3051212 4242 0 2 0.000000e+00 # coeffcrpnu1nu1
      3051212 4142 0 1 0.000000e+00 # coeffcrnu1nu1np
      3051212 4242 0 1 0.000000e+00 # coeffcrpnu1nu1np
      3051414 4142 0 0 0.000000e+00 # coeffcrnu2nu2sm
      3051414 4142 0 2 0.000000e+00 # coeffcrnu2nu2
      3051414 4242 0 2 0.000000e+00 # coeffcrpnu2nu2
      3051414 4142 0 1 0.000000e+00 # coeffcrnu2nu2np
      3051414 4242 0 1 0.000000e+00 # coeffcrpnu2nu2np
      3051616 4142 0 0 0.000000e+00 # coeffcrnu3nu3sm
      3051616 4142 0 2 0.000000e+00 # coeffcrnu3nu3
      3051616 4242 0 2 0.000000e+00 # coeffcrpnu3nu3
      3051616 4142 0 1 0.000000e+00 # coeffcrnu3nu3np
      3051616 4242 0 1 0.000000e+00 # coeffcrpnu3nu3np
      1030103 3131 0 2 0.000000e+00 # coeffkk_sll
      1030103 3232 0 2 0.000000e+00 # coeffkk_srr
      1030103 3132 0 2 0.000000e+00 # coeffkk_slr
      1030103 4141 0 2 0.000000e+00 # coeffkk_vll
      1030103 4242 0 2 0.000000e+00 # coeffkk_vrr
      1030103 4142 0 2 0.000000e+00 # coeffkk_vlr
      1030103 4343 0 2 0.000000e+00 # coeffkk_tll
      1030103 4444 0 2 0.000000e+00 # coeffkk_trr
      1050105 3131 0 2 0.000000e+00 # coeffbb_sll
      1050105 3232 0 2 0.000000e+00 # coeffbb_srr
      1050105 3132 0 2 0.000000e+00 # coeffbb_slr
      1050105 4141 0 2 0.000000e+00 # coeffbb_vll
      1050105 4242 0 2 0.000000e+00 # coeffbb_vrr
      1050105 4142 0 2 0.000000e+00 # coeffbb_vlr
      1050105 4343 0 2 0.000000e+00 # coeffbb_tll
      1050105 4444 0 2 0.000000e+00 # coeffbb_trr
      3050305 3131 0 2 0.000000e+00 # coeffbsbs_sll
      3050305 3232 0 2 0.000000e+00 # coeffbsbs_srr
      3050305 3132 0 2 0.000000e+00 # coeffbsbs_slr
      3050305 4141 0 2 0.000000e+00 # coeffbsbs_vll
      3050305 4242 0 2 0.000000e+00 # coeffbsbs_vrr
      3050305 4142 0 2 0.000000e+00 # coeffbsbs_vlr
      3050305 4343 0 2 0.000000e+00 # coeffbsbs_tll
      3050305 4444 0 2 0.000000e+00 # coeffbsbs_trr
      1030103 3131 0 1 0.000000e+00 # coeffkk_sllnp
      1030103 3232 0 1 0.000000e+00 # coeffkk_srrnp
      1030103 3132 0 1 0.000000e+00 # coeffkk_slrnp
      1030103 4141 0 1 0.000000e+00 # coeffkk_vllnp
      1030103 4242 0 1 0.000000e+00 # coeffkk_vrrnp
      1030103 4142 0 1 0.000000e+00 # coeffkk_vlrnp
      1030103 4343 0 1 0.000000e+00 # coeffkk_tllnp
      1030103 4444 0 1 0.000000e+00 # coeffkk_trrnp
      1050105 3131 0 1 0.000000e+00 # coeffbb_sllnp
      1050105 3232 0 1 0.000000e+00 # coeffbb_srrnp
      1050105 3132 0 1 0.000000e+00 # coeffbb_slrnp
      1050105 4141 0 1 0.000000e+00 # coeffbb_vllnp
      1050105 4242 0 1 0.000000e+00 # coeffbb_vrrnp
      1050105 4142 0 1 0.000000e+00 # coeffbb_vlrnp
      1050105 4343 0 1 0.000000e+00 # coeffbb_tllnp
      1050105 4444 0 1 0.000000e+00 # coeffbb_trrnp
      3050305 3131 0 1 0.000000e+00 # coeffbsbs_sllnp
      3050305 3232 0 1 0.000000e+00 # coeffbsbs_srrnp
      3050305 3132 0 1 0.000000e+00 # coeffbsbs_slrnp
      3050305 4141 0 1 0.000000e+00 # coeffbsbs_vllnp
      3050305 4242 0 1 0.000000e+00 # coeffbsbs_vrrnp
      3050305 4142 0 1 0.000000e+00 # coeffbsbs_vlrnp
      3050305 4343 0 1 0.000000e+00 # coeffbsbs_tllnp
      3050305 4444 0 1 0.000000e+00 # coeffbsbs_trrnp
      1030103 3131 0 0 0.000000e+00 # coeffkk_sllsm
      1030103 3232 0 0 0.000000e+00 # coeffkk_srrsm
      1030103 3132 0 0 0.000000e+00 # coeffkk_slrsm
      1030103 4141 0 0 0.000000e+00 # coeffkk_vllsm
      1030103 4242 0 0 0.000000e+00 # coeffkk_vrrsm
      1030103 4142 0 0 0.000000e+00 # coeffkk_vlrsm
      1030103 4343 0 0 0.000000e+00 # coeffkk_tllsm
      1030103 4444 0 0 0.000000e+00 # coeffkk_trrsm
      1050105 3131 0 0 0.000000e+00 # coeffbb_sllsm
      1050105 3232 0 0 0.000000e+00 # coeffbb_srrsm
      1050105 3132 0 0 0.000000e+00 # coeffbb_slrsm
      1050105 4141 0 0 0.000000e+00 # coeffbb_vllsm
      1050105 4242 0 0 0.000000e+00 # coeffbb_vrrsm
      1050105 4142 0 0 0.000000e+00 # coeffbb_vlrsm
      1050105 4343 0 0 0.000000e+00 # coeffbb_tllsm
      1050105 4444 0 0 0.000000e+00 # coeffbb_trrsm
      3050305 3131 0 0 0.000000e+00 # coeffbsbs_sllsm
      3050305 3232 0 0 0.000000e+00 # coeffbsbs_srrsm
      3050305 3132 0 0 0.000000e+00 # coeffbsbs_slrsm
      3050305 4141 0 0 0.000000e+00 # coeffbsbs_vllsm
      3050305 4242 0 0 0.000000e+00 # coeffbsbs_vrrsm
      3050305 4142 0 0 0.000000e+00 # coeffbsbs_vlrsm
      3050305 4343 0 0 0.000000e+00 # coeffbsbs_tllsm
      3050305 4444 0 0 0.000000e+00 # coeffbsbs_trrsm
###################################
## INFORMATION FOR IMFWCOEF
###################################
BLOCK IMFWCOEF Q= 1.600000e+02 #  im(wilson coefficients) at scale q
      305 4422 0 0 0.000000e+00 # coeffc7sm
      305 4422 0 2 0.000000e+00 # coeffc7
      305 4322 0 2 0.000000e+00 # coeffc7p
      305 4422 0 1 0.000000e+00 # coeffc7np
      305 4322 0 1 0.000000e+00 # coeffc7pnp
      305 6421 0 0 0.000000e+00 # coeffc8sm
      305 6421 0 2 0.000000e+00 # coeffc8
      305 6321 0 2 0.000000e+00 # coeffc8p
      305 6421 0 1 0.000000e+00 # coeffc8np
      305 6321 0 1 0.000000e+00 # coeffc8pnp
      3051111 4133 0 0 0.000000e+00 # coeffc9eesm
      3051111 4133 0 2 0.000000e+00 # coeffc9ee
      3051111 4233 0 2 0.000000e+00 # coeffc9pee
      3051111 4133 0 1 0.000000e+00 # coeffc9eenp
      3051111 4233 0 1 0.000000e+00 # coeffc9peenp
      3051111 4137 0 0 0.000000e+00 # coeffc10eesm
      3051111 4137 0 2 0.000000e+00 # coeffc10ee
      3051111 4237 0 2 0.000000e+00 # coeffc10pee
      3051111 4137 0 1 0.000000e+00 # coeffc10eenp
      3051111 4237 0 1 0.000000e+00 # coeffc10peenp
      3051313 4133 0 0 0.000000e+00 # coeffc9mumusm
      3051313 4133 0 2 0.000000e+00 # coeffc9mumu
      3051313 4233 0 2 0.000000e+00 # coeffc9pmumu
      3051313 4133 0 1 0.000000e+00 # coeffc9mumunp
      3051313 4233 0 1 0.000000e+00 # coeffc9pmumunp
      3051313 4137 0 0 0.000000e+00 # coeffc10mumusm
      3051313 4137 0 2 0.000000e+00 # coeffc10mumu
      3051313 4237 0 2 0.000000e+00 # coeffc10pmumu
      3051313 4137 0 1 0.000000e+00 # coeffc10mumunp
      3051313 4237 0 1 0.000000e+00 # coeffc10pmumunp
      3051212 4141 0 0 0.000000e+00 # coeffclnu1nu1sm
      3051212 4141 0 2 0.000000e+00 # coeffclnu1nu1
      3051212 4241 0 2 0.000000e+00 # coeffclpnu1nu1
      3051212 4141 0 1 0.000000e+00 # coeffclnu1nu1np
      3051212 4241 0 1 0.000000e+00 # coeffclpnu1nu1np
      3051414 4141 0 0 0.000000e+00 # coeffclnu2nu2sm
      3051414 4141 0 2 0.000000e+00 # coeffclnu2nu2
      3051414 4241 0 2 0.000000e+00 # coeffclpnu2nu2
      3051414 4141 0 1 0.000000e+00 # coeffclnu2nu2np
      3051414 4241 0 1 0.000000e+00 # coeffclpnu2nu2np
      3051616 4141 0 0 0.000000e+00 # coeffclnu3nu3sm
      3051616 4141 0 2 0.000000e+00 # coeffclnu3nu3
      3051616 4241 0 2 0.000000e+00 # coeffclpnu3nu3
      3051616 4141 0 1 0.000000e+00 # coeffclnu3nu3np
      3051616 4241 0 1 0.000000e+00 # coeffclpnu3nu3np
      3051212 4142 0 0 0.000000e+00 # coeffcrnu1nu1sm
      3051212 4142 0 2 0.000000e+00 # coeffcrnu1nu1
      3051212 4242 0 2 0.000000e+00 # coeffcrpnu1nu1
      3051212 4142 0 1 0.000000e+00 # coeffcrnu1nu1np
      3051212 4242 0 1 0.000000e+00 # coeffcrpnu1nu1np
      3051414 4142 0 0 0.000000e+00 # coeffcrnu2nu2sm
      3051414 4142 0 2 0.000000e+00 # coeffcrnu2nu2
      3051414 4242 0 2 0.000000e+00 # coeffcrpnu2nu2
      3051414 4142 0 1 0.000000e+00 # coeffcrnu2nu2np
      3051414 4242 0 1 0.000000e+00 # coeffcrpnu2nu2np
      3051616 4142 0 0 0.000000e+00 # coeffcrnu3nu3sm
      3051616 4142 0 2 0.000000e+00 # coeffcrnu3nu3
      3051616 4242 0 2 0.000000e+00 # coeffcrpnu3nu3
      3051616 4142 0 1 0.000000e+00 # coeffcrnu3nu3np
      3051616 4242 0 1 0.000000e+00 # coeffcrpnu3nu3np
      1030103 3131 0 2 0.000000e+00 # coeffkk_sll
      1030103 3232 0 2 0.000000e+00 # coeffkk_srr
      1030103 3132 0 2 0.000000e+00 # coeffkk_slr
      1030103 4141 0 2 0.000000e+00 # coeffkk_vll
      1030103 4242 0 2 0.000000e+00 # coeffkk_vrr
      1030103 4142 0 2 0.000000e+00 # coeffkk_vlr
      1030103 4343 0 2 0.000000e+00 # coeffkk_tll
      1030103 4444 0 2 0.000000e+00 # coeffkk_trr
      1050105 3131 0 2 0.000000e+00 # coeffbb_sll
      1050105 3232 0 2 0.000000e+00 # coeffbb_srr
      1050105 3132 0 2 0.000000e+00 # coeffbb_slr
      1050105 4141 0 2 0.000000e+00 # coeffbb_vll
      1050105 4242 0 2 0.000000e+00 # coeffbb_vrr
      1050105 4142 0 2 0.000000e+00 # coeffbb_vlr
      1050105 4343 0 2 0.000000e+00 # coeffbb_tll
      1050105 4444 0 2 0.000000e+00 # coeffbb_trr
      3050305 3131 0 2 0.000000e+00 # coeffbsbs_sll
      3050305 3232 0 2 0.000000e+00 # coeffbsbs_srr
      3050305 3132 0 2 0.000000e+00 # coeffbsbs_slr
      3050305 4141 0 2 0.000000e+00 # coeffbsbs_vll
      3050305 4242 0 2 0.000000e+00 # coeffbsbs_vrr
      3050305 4142 0 2 0.000000e+00 # coeffbsbs_vlr
      3050305 4343 0 2 0.000000e+00 # coeffbsbs_tll
      3050305 4444 0 2 0.000000e+00 # coeffbsbs_trr
      1030103 3131 0 1 0.000000e+00 # coeffkk_sllnp
      1030103 3232 0 1 0.000000e+00 # coeffkk_srrnp
      1030103 3132 0 1 0.000000e+00 # coeffkk_slrnp
      1030103 4141 0 1 0.000000e+00 # coeffkk_vllnp
      1030103 4242 0 1 0.000000e+00 # coeffkk_vrrnp
      1030103 4142 0 1 0.000000e+00 # coeffkk_vlrnp
      1030103 4343 0 1 0.000000e+00 # coeffkk_tllnp
      1030103 4444 0 1 0.000000e+00 # coeffkk_trrnp
      1050105 3131 0 1 0.000000e+00 # coeffbb_sllnp
      1050105 3232 0 1 0.000000e+00 # coeffbb_srrnp
      1050105 3132 0 1 0.000000e+00 # coeffbb_slrnp
      1050105 4141 0 1 0.000000e+00 # coeffbb_vllnp
      1050105 4242 0 1 0.000000e+00 # coeffbb_vrrnp
      1050105 4142 0 1 0.000000e+00 # coeffbb_vlrnp
      1050105 4343 0 1 0.000000e+00 # coeffbb_tllnp
      1050105 4444 0 1 0.000000e+00 # coeffbb_trrnp
      3050305 3131 0 1 0.000000e+00 # coeffbsbs_sllnp
      3050305 3232 0 1 0.000000e+00 # coeffbsbs_srrnp
      3050305 3132 0 1 0.000000e+00 # coeffbsbs_slrnp
      3050305 4141 0 1 0.000000e+00 # coeffbsbs_vllnp
      3050305 4242 0 1 0.000000e+00 # coeffbsbs_vrrnp
      3050305 4142 0 1 0.000000e+00 # coeffbsbs_vlrnp
      3050305 4343 0 1 0.000000e+00 # coeffbsbs_tllnp
      3050305 4444 0 1 0.000000e+00 # coeffbsbs_trrnp
      1030103 3131 0 0 0.000000e+00 # coeffkk_sllsm
      1030103 3232 0 0 0.000000e+00 # coeffkk_srrsm
      1030103 3132 0 0 0.000000e+00 # coeffkk_slrsm
      1030103 4141 0 0 0.000000e+00 # coeffkk_vllsm
      1030103 4242 0 0 0.000000e+00 # coeffkk_vrrsm
      1030103 4142 0 0 0.000000e+00 # coeffkk_vlrsm
      1030103 4343 0 0 0.000000e+00 # coeffkk_tllsm
      1030103 4444 0 0 0.000000e+00 # coeffkk_trrsm
      1050105 3131 0 0 0.000000e+00 # coeffbb_sllsm
      1050105 3232 0 0 0.000000e+00 # coeffbb_srrsm
      1050105 3132 0 0 0.000000e+00 # coeffbb_slrsm
      1050105 4141 0 0 0.000000e+00 # coeffbb_vllsm
      1050105 4242 0 0 0.000000e+00 # coeffbb_vrrsm
      1050105 4142 0 0 0.000000e+00 # coeffbb_vlrsm
      1050105 4343 0 0 0.000000e+00 # coeffbb_tllsm
      1050105 4444 0 0 0.000000e+00 # coeffbb_trrsm
      3050305 3131 0 0 0.000000e+00 # coeffbsbs_sllsm
      3050305 3232 0 0 0.000000e+00 # coeffbsbs_srrsm
      3050305 3132 0 0 0.000000e+00 # coeffbsbs_slrsm
      3050305 4141 0 0 0.000000e+00 # coeffbsbs_vllsm
      3050305 4242 0 0 0.000000e+00 # coeffbsbs_vrrsm
      3050305 4142 0 0 0.000000e+00 # coeffbsbs_vlrsm
      3050305 4343 0 0 0.000000e+00 # coeffbsbs_tllsm
      3050305 4444 0 0 0.000000e+00 # coeffbsbs_trrsm
###################################
## INFORMATION FOR FINETUNING
###################################
BLOCK FINETUNING # 
      0 0.000000e+00 # overall ft
      1 0.000000e+00 # m0
      2 0.000000e+00 # m12
      3 0.000000e+00 # azero
      4 0.000000e+00 # \[mu]
      5 0.000000e+00 # b[\[mu]]
###################################
## INFORMATION FOR TREELEVELUNITARITY
###################################
BLOCK TREELEVELUNITARITY # 
      0 1.000000e+00 # tree-level unitarity limits fulfilled or not
      1 0.000000e+00 # maximal scattering eigenvalue
###################################
## INFORMATION FOR DECAY
###################################
DECAY 1000001 9.338348e-01 # sd_1
      4.192717e-03 2 1 1000022 # br(sd_1 -> fd_1 chi_1 )
      3.956542e-04 2 1 1000023 # br(sd_1 -> fd_1 chi_2 )
      9.953996e-01 2 1 1000025 # br(sd_1 -> fd_1 chi_3 )

DECAY 1000003 4.753136e+01 # sd_2
      2.176464e-04 2 -1000037 4 # br(sd_2 -> fu_2 cha_2 )
      6.599479e-01 2 -1000024 6 # br(sd_2 -> fu_3 cha_1 )
      9.002803e-02 2 -1000037 6 # br(sd_2 -> fu_3 cha_2 )
      7.230531e-02 2 5 1000022 # br(sd_2 -> fd_3 chi_1 )
      6.824068e-02 2 5 1000023 # br(sd_2 -> fd_3 chi_2 )
      4.515790e-03 2 5 1000025 # br(sd_2 -> fd_3 chi_3 )
      4.513074e-02 2 5 1000035 # br(sd_2 -> fd_3 chi_4 )
      5.960331e-02 2 -24 1000002 # br(sd_2 -> su_1 vwm )

DECAY 1000005 9.543668e-01 # sd_3
      1.484459e-04 2 -1000024 2 # br(sd_3 -> fu_1 cha_1 )
      2.751147e-03 2 -1000024 4 # br(sd_3 -> fu_2 cha_1 )
      2.333841e-04 2 -1000037 4 # br(sd_3 -> fu_2 cha_2 )
      5.686007e-03 2 3 1000022 # br(sd_3 -> fd_2 chi_1 )
      1.741128e-03 2 3 1000023 # br(sd_3 -> fd_2 chi_2 )
      9.892839e-01 2 3 1000025 # br(sd_3 -> fd_2 chi_3 )
      1.275006e-04 2 3 1000035 # br(sd_3 -> fd_2 chi_4 )

DECAY 2000001 7.004697e+00 # sd_4
      1.234537e-03 2 -1000024 2 # br(sd_4 -> fu_1 cha_1 )
      6.087146e-01 2 -1000037 2 # br(sd_4 -> fu_1 cha_2 )
      3.262225e-02 2 -1000037 4 # br(sd_4 -> fu_2 cha_2 )
      3.625214e-04 2 -1000024 6 # br(sd_4 -> fu_3 cha_1 )
      3.779765e-03 2 1 1000022 # br(sd_4 -> fd_1 chi_1 )
      7.854857e-04 2 1 1000023 # br(sd_4 -> fd_1 chi_2 )
      3.174256e-02 2 1 1000025 # br(sd_4 -> fd_1 chi_3 )
      3.206217e-01 2 1 1000035 # br(sd_4 -> fd_1 chi_4 )

DECAY 2000003 7.369467e+00 # sd_5
      3.236577e-02 2 -1000037 2 # br(sd_5 -> fu_1 cha_2 )
      1.238143e-03 2 -1000024 4 # br(sd_5 -> fu_2 cha_1 )
      6.015856e-01 2 -1000037 4 # br(sd_5 -> fu_2 cha_2 )
      1.016739e-02 2 -1000024 6 # br(sd_5 -> fu_3 cha_1 )
      1.469013e-03 2 -1000037 6 # br(sd_5 -> fu_3 cha_2 )
      3.792813e-03 2 3 1000022 # br(sd_5 -> fd_2 chi_1 )
      9.439351e-04 2 3 1000023 # br(sd_5 -> fd_2 chi_2 )
      3.064327e-02 2 3 1000025 # br(sd_5 -> fd_2 chi_3 )
      3.176241e-01 2 3 1000035 # br(sd_5 -> fd_2 chi_4 )

DECAY 2000005 1.522365e+01 # sd_6
      7.725541e-04 2 -1000024 4 # br(sd_6 -> fu_2 cha_1 )
      4.728651e-01 2 -1000024 6 # br(sd_6 -> fu_3 cha_1 )
      6.853171e-03 2 -1000037 6 # br(sd_6 -> fu_3 cha_2 )
      2.155124e-01 2 5 1000022 # br(sd_6 -> fd_3 chi_1 )
      2.239921e-01 2 5 1000023 # br(sd_6 -> fd_3 chi_2 )
      6.491981e-02 2 5 1000025 # br(sd_6 -> fd_3 chi_3 )
      3.438311e-03 2 5 1000035 # br(sd_6 -> fd_3 chi_4 )
      1.163215e-02 2 -24 1000002 # br(sd_6 -> su_1 vwm )

DECAY 1000002 5.236534e+01 # su_1
      2.773330e-01 2 6 1000022 # br(su_1 -> fu_3 chi_1 )
      2.694150e-01 2 6 1000023 # br(su_1 -> fu_3 chi_2 )
      4.490187e-02 2 6 1000025 # br(su_1 -> fu_3 chi_3 )
      1.405653e-02 2 6 1000035 # br(su_1 -> fu_3 chi_4 )
      6.067436e-04 2 3 1000024 # br(su_1 -> cha_1^* fd_2 )
      3.650838e-01 2 5 1000024 # br(su_1 -> cha_1^* fd_3 )
      2.856717e-02 2 5 1000037 # br(su_1 -> cha_2^* fd_3 )

DECAY 1000004 3.612528e+00 # su_2
      4.246643e-03 2 2 1000022 # br(su_2 -> fu_1 chi_1 )
      3.972795e-04 2 2 1000023 # br(su_2 -> fu_1 chi_2 )
      9.953534e-01 2 2 1000025 # br(su_2 -> fu_1 chi_3 )

DECAY 1000006 3.613597e+00 # su_3
      4.318148e-03 2 4 1000022 # br(su_3 -> fu_2 chi_1 )
      4.716358e-04 2 4 1000023 # br(su_3 -> fu_2 chi_2 )
      9.950592e-01 2 4 1000025 # br(su_3 -> fu_2 chi_3 )
      1.394525e-04 2 3 1000024 # br(su_3 -> cha_1^* fd_2 )

DECAY 2000002 7.042126e+00 # su_4
      1.343446e-03 2 2 1000022 # br(su_4 -> fu_1 chi_1 )
      4.064211e-04 2 2 1000023 # br(su_4 -> fu_1 chi_2 )
      3.369895e-02 2 2 1000025 # br(su_4 -> fu_1 chi_3 )
      3.012568e-01 2 2 1000035 # br(su_4 -> fu_1 chi_4 )
      1.808743e-03 2 4 1000025 # br(su_4 -> fu_2 chi_3 )
      1.616946e-02 2 4 1000035 # br(su_4 -> fu_2 chi_4 )
      1.094725e-02 2 1 1000024 # br(su_4 -> cha_1^* fd_1 )
      6.341355e-01 2 1 1000037 # br(su_4 -> cha_2^* fd_1 )

DECAY 2000004 7.373212e+00 # su_5
      1.754764e-03 2 2 1000025 # br(su_5 -> fu_1 chi_3 )
      1.610477e-02 2 2 1000035 # br(su_5 -> fu_1 chi_4 )
      1.329283e-03 2 4 1000022 # br(su_5 -> fu_2 chi_1 )
      4.275687e-04 2 4 1000023 # br(su_5 -> fu_2 chi_2 )
      3.263968e-02 2 4 1000025 # br(su_5 -> fu_2 chi_3 )
      2.995579e-01 2 4 1000035 # br(su_5 -> fu_2 chi_4 )
      2.621895e-03 2 6 1000022 # br(su_5 -> fu_3 chi_1 )
      2.633498e-03 2 6 1000023 # br(su_5 -> fu_3 chi_2 )
      3.837973e-04 2 6 1000035 # br(su_5 -> fu_3 chi_4 )
      1.083785e-02 2 3 1000024 # br(su_5 -> cha_1^* fd_2 )
      1.593356e-04 2 5 1000024 # br(su_5 -> cha_1^* fd_3 )
      6.313391e-01 2 3 1000037 # br(su_5 -> cha_2^* fd_2 )

DECAY 2000006 6.543432e+01 # su_6
      2.598625e-01 2 6 1000022 # br(su_6 -> fu_3 chi_1 )
      2.700953e-01 2 6 1000023 # br(su_6 -> fu_3 chi_2 )
      2.349476e-02 2 6 1000025 # br(su_6 -> fu_3 chi_3 )
      2.109715e-02 2 6 1000035 # br(su_6 -> fu_3 chi_4 )
      3.752019e-04 2 3 1000024 # br(su_6 -> cha_1^* fd_2 )
      2.939186e-01 2 5 1000024 # br(su_6 -> cha_1^* fd_3 )
      4.195357e-02 2 5 1000037 # br(su_6 -> cha_2^* fd_3 )
      3.206968e-03 2 25 1000002 # br(su_6 -> su_1 hh_1 )
      5.004600e-03 2 24 1000003 # br(su_6 -> sd_2 vwm^* )
      8.095417e-02 2 23 1000002 # br(su_6 -> su_1 vz )

DECAY 1000011 3.266040e+00 # se_1
      3.163843e-01 2 -1000024 16 # br(se_1 -> fv_3 cha_1 )
      3.246121e-01 2 15 1000022 # br(se_1 -> fe_3 chi_1 )
      2.613715e-01 2 15 1000023 # br(se_1 -> fe_3 chi_2 )
      9.763212e-02 2 15 1000025 # br(se_1 -> fe_3 chi_3 )

DECAY 1000013 3.829991e-01 # se_2
      2.612791e-02 2 -1000024 14 # br(se_2 -> fv_2 cha_1 )
      4.967622e-02 2 13 1000022 # br(se_2 -> fe_2 chi_1 )
      2.165730e-03 2 13 1000023 # br(se_2 -> fe_2 chi_2 )
      9.220301e-01 2 13 1000025 # br(se_2 -> fe_2 chi_3 )

DECAY 1000015 5.682839e-01 # se_3
      2.472733e-02 2 11 1000022 # br(se_3 -> fe_1 chi_1 )
      2.300096e-03 2 11 1000023 # br(se_3 -> fe_1 chi_2 )
      9.729026e-01 2 11 1000025 # br(se_3 -> fe_1 chi_3 )

DECAY 2000011 1.510674e-01 # se_4
      2.372263e-02 2 -1000024 12 # br(se_4 -> fv_1 cha_1 )
      4.443871e-03 2 11 1000022 # br(se_4 -> fe_1 chi_1 )
      3.421367e-03 2 11 1000023 # br(se_4 -> fe_1 chi_2 )
      9.684121e-01 2 11 1000025 # br(se_4 -> fe_1 chi_3 )

DECAY 2000013 3.564021e-01 # se_5
      5.075639e-04 2 -1000024 14 # br(se_5 -> fv_2 cha_1 )
      6.453173e-03 2 13 1000022 # br(se_5 -> fe_2 chi_1 )
      2.113812e-02 2 13 1000023 # br(se_5 -> fe_2 chi_2 )
      9.719011e-01 2 13 1000025 # br(se_5 -> fe_2 chi_3 )

DECAY 2000015 3.005441e+00 # se_6
      2.734435e-01 2 -1000024 16 # br(se_6 -> fv_3 cha_1 )
      2.719304e-01 2 15 1000022 # br(se_6 -> fe_3 chi_1 )
      3.305689e-01 2 15 1000023 # br(se_6 -> fe_3 chi_2 )
      1.240572e-01 2 15 1000025 # br(se_6 -> fe_3 chi_3 )

DECAY 1000012 2.037060e+00 # sv_1
      9.918394e-03 2 16 1000022 # br(sv_1 -> fv_3 chi_1 )
      1.689181e-03 2 16 1000023 # br(sv_1 -> fv_3 chi_2 )
      6.524537e-02 2 16 1000025 # br(sv_1 -> fv_3 chi_3 )
      9.231471e-01 2 15 1000024 # br(sv_1 -> cha_1^* fe_3 )

DECAY 1000014 1.947503e-01 # sv_2
      1.038789e-01 2 14 1000022 # br(sv_2 -> fv_2 chi_1 )
      1.769163e-02 2 14 1000023 # br(sv_2 -> fv_2 chi_2 )
      6.878351e-01 2 14 1000025 # br(sv_2 -> fv_2 chi_3 )
      1.905945e-01 2 13 1000024 # br(sv_2 -> cha_1^* fe_2 )

DECAY 1000016 1.882036e-01 # sv_3
      1.074928e-01 2 12 1000022 # br(sv_3 -> fv_1 chi_1 )
      1.830713e-02 2 12 1000023 # br(sv_3 -> fv_1 chi_2 )
      7.117814e-01 2 12 1000025 # br(sv_3 -> fv_1 chi_3 )
      1.624186e-01 2 11 1000024 # br(sv_3 -> cha_1^* fe_1 )

DECAY 25 3.938301e-03 # hh_1
      3.086463e-03 2 22 22 # br(hh_1 -> vp vp )
      8.200305e-02 2 21 21 # br(hh_1 -> vg vg )
      2.388965e-02 2 23 23 # br(hh_1 -> vz vz )
      2.595278e-01 2 -24 24 # br(hh_1 -> vwm^* vwm_virt )
      2.026869e-04 2 -3 3 # br(hh_1 -> fd_2^* fd_2 )
      5.428866e-01 2 -5 5 # br(hh_1 -> fd_3^* fd_3 )
      2.183683e-04 2 -13 13 # br(hh_1 -> fe_2^* fe_2 )
      6.303254e-02 2 -15 15 # br(hh_1 -> fe_3^* fe_3 )
      2.515224e-02 2 -4 4 # br(hh_1 -> fu_2^* fu_2 )

DECAY 35 1.987440e+01 # hh_2
      1.134485e-03 2 -1000024 1000024 # br(hh_2 -> cha_1^* cha_1 )
      6.948402e-04 2 1000022 1000022 # br(hh_2 -> chi_1 chi_1 )
      2.869509e-04 2 1000022 1000023 # br(hh_2 -> chi_1 chi_2 )
      1.338974e-04 2 1000023 1000023 # br(hh_2 -> chi_2 chi_2 )
      3.329143e-04 2 -3 3 # br(hh_2 -> fd_2^* fd_2 )
      8.175058e-01 2 -5 5 # br(hh_2 -> fd_3^* fd_3 )
      6.184589e-04 2 -13 13 # br(hh_2 -> fe_2^* fe_2 )
      1.748809e-01 2 -15 15 # br(hh_2 -> fe_3^* fe_3 )
      4.377791e-03 2 -6 6 # br(hh_2 -> fu_3^* fu_3 )

DECAY 36 1.991532e+01 # ah_2
      2.349371e-03 2 -1000024 1000024 # br(ah_2 -> cha_1^* cha_1 )
      1.554541e-03 2 1000022 1000022 # br(ah_2 -> chi_1 chi_1 )
      1.043354e-04 2 1000022 1000023 # br(ah_2 -> chi_1 chi_2 )
      2.333287e-04 2 1000023 1000023 # br(ah_2 -> chi_2 chi_2 )
      3.322333e-04 2 -3 3 # br(ah_2 -> fd_2^* fd_2 )
      8.158384e-01 2 -5 5 # br(ah_2 -> fd_3^* fd_3 )
      6.171937e-04 2 -13 13 # br(ah_2 -> fe_2^* fe_2 )
      1.745238e-01 2 -15 15 # br(ah_2 -> fe_3^* fe_3 )
      4.415012e-03 2 -6 6 # br(ah_2 -> fu_3^* fu_3 )

DECAY 37 1.828730e+01 # hpm_2
      2.458883e-04 2 1000023 1000024 # br(hpm_2^* -> chi_2 cha_1^* )
      3.153769e-04 2 -3 4 # br(hpm_2^* -> fu_2 fd_2^* )
      1.461196e-03 2 -5 4 # br(hpm_2^* -> fu_2 fd_3^* )
      8.048933e-01 2 -5 6 # br(hpm_2^* -> fu_3 fd_3^* )
      6.801813e-04 2 -13 14 # br(hpm_2^* -> fv_2 fe_2^* )
      1.923348e-01 2 -15 16 # br(hpm_2^* -> fv_3 fe_3^* )

DECAY 1000021 2.520774e+02 # glu
      4.206304e-02 2 -1000001 1 # br(glu -> fd_1 sd_1^* )
      4.206304e-02 2 -1 1000001 # br(glu -> fd_1^* sd_1 )
      4.087065e-02 2 -2000001 1 # br(glu -> fd_1 sd_4^* )
      4.087065e-02 2 -1 2000001 # br(glu -> fd_1^* sd_4 )
      4.088866e-02 2 -1000005 3 # br(glu -> fd_2 sd_3^* )
      4.088866e-02 2 -3 1000005 # br(glu -> fd_2^* sd_3 )
      3.971338e-02 2 -2000003 3 # br(glu -> fd_2 sd_5^* )
      3.971338e-02 2 -3 2000003 # br(glu -> fd_2^* sd_5 )
      4.149629e-02 2 -1000003 5 # br(glu -> fd_3 sd_2^* )
      4.149629e-02 2 -5 1000003 # br(glu -> fd_3^* sd_2 )
      3.845651e-02 2 -2000005 5 # br(glu -> fd_3 sd_6^* )
      3.845651e-02 2 -5 2000005 # br(glu -> fd_3^* sd_6 )
      4.453068e-02 2 -1000004 2 # br(glu -> fu_1 su_2^* )
      4.453068e-02 2 -2 1000004 # br(glu -> fu_1^* su_2 )
      3.885133e-02 2 -2000002 2 # br(glu -> fu_1 su_4^* )
      3.885133e-02 2 -2 2000002 # br(glu -> fu_1^* su_4 )
      2.027116e-03 2 -2000004 2 # br(glu -> fu_1 su_5^* )
      2.027116e-03 2 -2 2000004 # br(glu -> fu_1^* su_5 )
      4.453071e-02 2 -1000006 4 # br(glu -> fu_2 su_3^* )
      4.453071e-02 2 -4 1000006 # br(glu -> fu_2^* su_3 )
      2.085280e-03 2 -2000002 4 # br(glu -> fu_2 su_4^* )
      2.085280e-03 2 -4 2000002 # br(glu -> fu_2^* su_4 )
      3.770550e-02 2 -2000004 4 # br(glu -> fu_2 su_5^* )
      3.770550e-02 2 -4 2000004 # br(glu -> fu_2^* su_5 )
      5.755189e-02 2 -1000002 6 # br(glu -> fu_3 su_1^* )
      5.755189e-02 2 -6 1000002 # br(glu -> fu_3^* su_1 )
      2.912033e-02 2 -2000006 6 # br(glu -> fu_3 su_6^* )
      2.912033e-02 2 -6 2000006 # br(glu -> fu_3^* su_6 )

DECAY 1000022 0.000000e+00 # chi_1
DECAY 1000023 0.000000e+00 # chi_2
DECAY 1000025 2.834525e+00 # chi_3
      2.522547e-01 2 -1000024 24 # br(chi_3 -> cha_1 vwm^* )
      2.522547e-01 2 -24 1000024 # br(chi_3 -> cha_1^* vwm )
      2.298978e-01 2 25 1000022 # br(chi_3 -> chi_1 hh_1 )
      2.057095e-02 2 25 1000023 # br(chi_3 -> chi_2 hh_1 )
      2.172944e-02 2 23 1000022 # br(chi_3 -> chi_1 vz )
      2.232924e-01 2 23 1000023 # br(chi_3 -> chi_2 vz )

DECAY 1000035 2.515287e+01 # chi_4
      1.505500e-01 2 -1000024 24 # br(chi_4 -> cha_1 vwm^* )
      1.505500e-01 2 -24 1000024 # br(chi_4 -> cha_1^* vwm )
      1.248422e-01 2 25 1000022 # br(chi_4 -> chi_1 hh_1 )
      2.934376e-02 2 25 1000023 # br(chi_4 -> chi_2 hh_1 )
      1.411243e-03 2 25 1000025 # br(chi_4 -> chi_3 hh_1 )
      2.900928e-02 2 23 1000022 # br(chi_4 -> chi_1 vz )
      1.217189e-01 2 23 1000023 # br(chi_4 -> chi_2 vz )
      3.136695e-04 2 -1000015 11 # br(chi_4 -> fe_1 se_3^* )
      3.136695e-04 2 -11 1000015 # br(chi_4 -> fe_1^* se_3 )
      3.211177e-02 2 -2000011 11 # br(chi_4 -> fe_1 se_4^* )
      3.211177e-02 2 -11 2000011 # br(chi_4 -> fe_1^* se_4 )
      1.580344e-02 2 -1000013 13 # br(chi_4 -> fe_2 se_2^* )
      1.580344e-02 2 -13 1000013 # br(chi_4 -> fe_2^* se_2 )
      1.663413e-02 2 -2000013 13 # br(chi_4 -> fe_2 se_5^* )
      1.663413e-02 2 -13 2000013 # br(chi_4 -> fe_2^* se_5 )
      1.585420e-02 2 -1000011 15 # br(chi_4 -> fe_3 se_1^* )
      1.585420e-02 2 -15 1000011 # br(chi_4 -> fe_3^* se_1 )
      1.667432e-02 2 -2000015 15 # br(chi_4 -> fe_3 se_6^* )
      1.667432e-02 2 -15 2000015 # br(chi_4 -> fe_3^* se_6 )
      3.291894e-02 2 -1000016 12 # br(chi_4 -> fv_1 sv_3^* )
      3.291894e-02 2 -12 1000016 # br(chi_4 -> fv_1^* sv_3 )
      3.291930e-02 2 -1000014 14 # br(chi_4 -> fv_2 sv_2^* )
      3.291930e-02 2 -14 1000014 # br(chi_4 -> fv_2^* sv_2 )
      3.302227e-02 2 -1000012 16 # br(chi_4 -> fv_3 sv_1^* )
      3.302227e-02 2 -16 1000012 # br(chi_4 -> fv_3^* sv_1 )

DECAY 1000024 0.000000e+00 # cha_1
DECAY 1000037 2.516731e+01 # cha_2
      1.558018e-01 2 25 1000024 # br(cha_2^* -> cha_1^* hh_1 )
      1.505393e-01 2 23 1000024 # br(cha_2^* -> cha_1^* vz )
      1.488489e-01 2 24 1000022 # br(cha_2^* -> chi_1 vwm^* )
      1.507592e-01 2 24 1000023 # br(cha_2^* -> chi_2 vwm^* )
      1.549163e-03 2 24 1000025 # br(cha_2^* -> chi_3 vwm^* )
      6.550000e-02 2 -11 1000016 # br(cha_2^* -> fe_1^* sv_3 )
      6.550073e-02 2 -13 1000014 # br(cha_2^* -> fe_2^* sv_2 )
      6.570741e-02 2 -15 1000012 # br(cha_2^* -> fe_3^* sv_1 )
      6.298735e-04 2 -1000015 12 # br(cha_2^* -> fv_1 se_3^* )
      6.455798e-02 2 -2000011 12 # br(cha_2^* -> fv_1 se_4^* )
      3.177129e-02 2 -1000013 14 # br(cha_2^* -> fv_2 se_2^* )
      3.344094e-02 2 -2000013 14 # br(cha_2^* -> fv_2 se_5^* )
      3.187561e-02 2 -1000011 16 # br(cha_2^* -> fv_3 se_1^* )
      3.351780e-02 2 -2000015 16 # br(cha_2^* -> fv_3 se_6^* )

DECAY 2 0.000000e+00 # fu_1
DECAY 4 0.000000e+00 # fu_2
DECAY 6 1.559820e+00 # fu_3
      1.676029e-03 2 3 24 # br(fu_3 -> fd_2 vwm^* )
      9.982885e-01 2 5 24 # br(fu_3 -> fd_3 vwm^* )

DECAY 21 0.000000e+00 # vg
DECAY 22 0.000000e+00 # vp
DECAY 23 2.495200e+00 # vz
DECAY 24 2.141000e+00 # vwm
DECAY 12 0.000000e+00 # fv_1
DECAY 14 0.000000e+00 # fv_2
DECAY 16 0.000000e+00 # fv_3
DECAY 11 0.000000e+00 # fe_1
DECAY 13 0.000000e+00 # fe_2
DECAY 15 0.000000e+00 # fe_3
DECAY 1 0.000000e+00 # fd_1
DECAY 3 0.000000e+00 # fd_2
DECAY 5 0.000000e+00 # fd_3
</slha>
<MGGenerationInfo>
#  Number of Events        :       1000
#  Integrated weight (pb)  :       1.8937968693705055e-08
</MGGenerationInfo>
</header>
<init>
2212 2212 6.500000e+03 6.500000e+03 0 0 247000 247000 -4 1
1.893797e-08 1.538000e-10 1.893797e-08 1
<generator name='MadGraph5_aMC@NLO' version='3.4.2'>please cite 1405.0301 </generator>
</init>
<event>
 5      1 +1.8937969e-08 6.41749700e+02 7.81665300e-03 9.82238500e-02
       -3 -1    0    0    0  501 -0.0000000000e+00 +0.0000000000e+00 +1.2625644693e+03 1.2625644729e+03 9.5000000000e-02 0.0000e+00 1.0000e+00
        3 -1    0    0  502    0 +0.0000000000e+00 -0.0000000000e+00 -7.1596907190e+02 7.1596907820e+02 9.5000000000e-02 0.0000e+00 1.0000e+00
  1000022  1    1    2    0    0 -4.9830255416e+01 -1.0967704366e+02 +8.1382675709e+02 1.0256754040e+03 6.1252260000e+02 0.0000e+00 -1.0000e+00
  1000022  1    1    2    0    0 +1.4783920377e+02 +1.4411685752e+02 -4.1800208452e+02 7.6976345520e+02 6.1252260000e+02 0.0000e+00 -1.0000e+00
       21  1    1    2  502  501 -9.8008948351e+01 -3.4439813863e+01 +1.5077072488e+02 1.8309469194e+02 0.0000000000e+00 0.0000e+00 -1.0000e+00
<mgrwt>
<rscale>  1 0.64174965E+03</rscale>
<asrwt>0</asrwt>
<pdfrwt beam="2">  1        3 0.11014909E+00 0.64174965E+03</pdfrwt>
<pdfrwt beam="1">  1       -3 0.19424069E+00 0.64174965E+03</pdfrwt>
<totfact> 0.29046755E-01</totfact>
</mgrwt>
</event>
<event>
 5      1 +1.8937969e-08 8.88182200e+02 7.81665300e-03 9.44047600e-02
        3 -1    0    0  502    0 -0.0000000000e+00 +0.0000000000e+00 +6.0003600581e+02 6.0003601333e+02 9.5000000000e-02 0.0000e+00 -1.0000e+00
       21 -1    0    0  501  502 +0.0000000000e+00 -0.0000000000e+00 -1.6885156062e+03 1.6885156062e+03 0.0000000000e+00 0.0000e+00 -1.0000e+00
  1000022  1    1    2    0    0 -6.1227736221e+01 +6.4824289048e+02 -2.5888190666e+02 9.3068332845e+02 6.1252260000e+02 0.0000e+00 1.0000e+00
  1000022  1    1    2    0    0 -1.1593990794e+02 -6.3562512620e+02 -6.2986806613e+02 1.0905865759e+03 6.1252260000e+02 0.0000e+00 1.0000e+00
        3  1    1    2  501    0 +1.7716764416e+02 -1.2617764285e+01 -1.9972962764e+02 2.6728171523e+02 9.5000000000e-02 0.0000e+00 1.0000e+00
<mgrwt>
<rscale>  1 0.88818216E+03</rscale>
<asrwt>0</asrwt>
<pdfrwt beam="2">  1       21 0.25977163E+00 0.88818216E+03</pdfrwt>
<pdfrwt beam="1">  1        3 0.92313234E-01 0.88818216E+03</pdfrwt>
<totfact> 0.22926252E+00</totfact>
</mgrwt>
</event>
<event>
 5      1 +1.8937969e-08 7.05551200e+02 7.81665300e-03 9.70778600e-02
        3 -1    0    0  502    0 +0.0000000000e+00 +0.0000000000e+00 +5.8065491376e+02 5.8065492153e+02 9.5000000000e-02 0.0000e+00 1.0000e+00
       -3 -1    0    0    0  501 -0.0000000000e+00 -0.0000000000e+00 -1.5036642559e+03 1.5036642589e+03 9.5000000000e-02 0.0000e+00 1.0000e+00
  1000022  1    1    2    0    0 +3.2226340051e+02 +6.2448159514e+01 -8.6440843465e+02 1.1091164724e+03 6.1252260000e+02 0.0000e+00 -1.0000e+00
  1000022  1    1    2    0    0 -3.3678787768e+02 -1.1871976507e+02 +1.7845280109e+02 7.3112912327e+02 6.1252260000e+02 0.0000e+00 -1.0000e+00
       21  1    1    2  502  501 +1.4524477169e+01 +5.6271605554e+01 -2.3705370859e+02 2.4407358478e+02 0.0000000000e+00 0.0000e+00 -1.0000e+00
<mgrwt>
<rscale>  1 0.70555125E+03</rscale>
<asrwt>0</asrwt>
<pdfrwt beam="1">  1        3 0.89331527E-01 0.70555125E+03</pdfrwt>
<pdfrwt beam="2">  1       -3 0.23133296E+00 0.70555125E+03</pdfrwt>
<totfact> 0.27992287E-01</totfact>
</mgrwt>
</event>
<event>
 5      1 +1.8937969e-08 7.16506300e+02 7.81665300e-03 9.68941300e-02
       -1 -1    0    0    0  501 -0.0000000000e+00 +0.0000000000e+00 +7.5408402767e+02 7.5408402769e+02 5.0000000000e-03 0.0000e+00 1.0000e+00
        1 -1    0    0  502    0 +0.0000000000e+00 -0.0000000000e+00 -8.6899351174e+02 8.6899351175e+02 5.0000000000e-03 0.0000e+00 -1.0000e+00
  1000022  1    1    2    0    0 +3.4620938220e+02 -1.8187429648e+02 -1.3233135907e+02 7.3867091465e+02 6.1252260000e+02 0.0000e+00 -1.0000e+00
  1000022  1    1    2    0    0 -3.0545432651e+02 +1.8985097254e+02 +1.6658086637e+02 7.2957443617e+02 6.1252260000e+02 0.0000e+00 1.0000e+00
       21  1    1    2  502  501 -4.0755055691e+01 -7.9766760658e+00 -1.4915899137e+02 1.5483218862e+02 0.0000000000e+00 0.0000e+00 -1.0000e+00
<mgrwt>
<rscale>  1 0.71650633E+03</rscale>
<asrwt>0</asrwt>
<pdfrwt beam="2">  1        1 0.13369131E+00 0.71650633E+03</pdfrwt>
<pdfrwt beam="1">  1       -1 0.11601293E+00 0.71650633E+03</pdfrwt>
<totfact> 0.13422377E+01</totfact>
</mgrwt>
</event>
<event>
 5      1 +1.8937969e-08 6.91758100e+02 7.81665300e-03 9.73143200e-02
        3 -1    0    0  502    0 +0.0000000000e+00 +0.0000000000e+00 +9.4957779211e+02 9.4957779687e+02 9.5000000000e-02 0.0000e+00 1.0000e+00
       -3 -1    0    0    0  501 -0.0000000000e+00 -0.0000000000e+00 -8.5857859200e+02 8.5857859726e+02 9.5000000000e-02 0.0000e+00 1.0000e+00
  1000022  1    1    2    0    0 -2.8364563332e+02 -1.6085932128e+02 +6.1118994522e+02 9.2469868130e+02 6.1252260000e+02 0.0000e+00 -1.0000e+00
  1000022  1    1    2    0    0 +2.6149392986e+02 +1.5165769849e+02 -4.7399297784e+02 8.3140387984e+02 6.1252260000e+02 0.0000e+00 -1.0000e+00
       21  1    1    2  502  501 +2.2151703460e+01 +9.2016227848e+00 -4.6197767266e+01 5.2053832985e+01 0.0000000000e+00 0.0000e+00 1.0000e+00
<mgrwt>
<rscale>  1 0.69175808E+03</rscale>
<asrwt>0</asrwt>
<pdfrwt beam="1">  1        3 0.14608889E+00 0.69175808E+03</pdfrwt>
<pdfrwt beam="2">  1       -3 0.13208902E+00 0.69175808E+03</pdfrwt>
<totfact> 0.40118656E-01</totfact>
</mgrwt>
</event>
<event>
 5      1 +1.8937969e-08 8.60736900e+02 7.81665300e-03 9.47603900e-02
        3 -1    0    0  502    0 +0.0000000000e+00 +0.0000000000e+00 +3.4477686645e+03 3.4477686658e+03 9.5000000000e-02 0.0000e+00 -1.0000e+00
       -3 -1    0    0    0  501 -0.0000000000e+00 -0.0000000000e+00 -2.8875205232e+02 2.8875206795e+02 9.5000000000e-02 0.0000e+00 -1.0000e+00
  1000022  1    1    2    0    0 -4.6749779199e+02 -1.1577446239e+02 +1.6281506095e+03 1.8049975774e+03 6.1252260000e+02 0.0000e+00 1.0000e+00
  1000022  1    1    2    0    0 +6.6815584291e+02 +1.6750438406e+02 +9.9184099682e+02 1.3540393080e+03 6.1252260000e+02 0.0000e+00 1.0000e+00
       21  1    1    2  502  501 -2.0065805092e+02 -5.1729921671e+01 +5.3902500590e+02 5.7748384842e+02 0.0000000000e+00 0.0000e+00 -1.0000e+00
<mgrwt>
<rscale>  1 0.86073687E+03</rscale>
<asrwt>0</asrwt>
<pdfrwt beam="1">  1        3 0.53042593E+00 0.86073687E+03</pdfrwt>
<pdfrwt beam="2">  1       -3 0.44423396E-01 0.86073687E+03</pdfrwt>
<totfact> 0.33066937E-02</totfact>
</mgrwt>
</event>
<event>
 5      1 +1.8937969e-08 9.48775600e+02 7.81665300e-03 9.36658300e-02
        3 -1    0    0  502    0 +0.0000000000e+00 +0.0000000000e+00 +1.4905643006e+03 1.4905643036e+03 9.5000000000e-02 0.0000e+00 1.0000e+00
       -3 -1    0    0    0  501 -0.0000000000e+00 -0.0000000000e+00 -7.8411004531e+02 7.8411005107e+02 9.5000000000e-02 0.0000e+00 1.0000e+00
  1000022  1    1    2    0    0 +1.1935106890e+02 -6.5728081744e+02 +5.5192012971e+02 1.0611609283e+03 6.1252260000e+02 0.0000e+00 -1.0000e+00
  1000022  1    1    2    0    0 -1.2229852121e+02 +8.0580522895e+02 +2.3254143761e+02 1.0457238885e+03 6.1252260000e+02 0.0000e+00 -1.0000e+00
       21  1    1    2  502  501 +2.9474523163e+00 -1.4852441151e+02 -7.8007312048e+01 1.6778953788e+02 0.0000000000e+00 0.0000e+00 -1.0000e+00
<mgrwt>
<rscale>  1 0.94877559E+03</rscale>
<asrwt>0</asrwt>
<pdfrwt beam="1">  1        3 0.22931758E+00 0.94877559E+03</pdfrwt>
<pdfrwt beam="2">  1       -3 0.12063232E+00 0.94877559E+03</pdfrwt>
<totfact> 0.13912898E-01</totfact>
</mgrwt>
</event>
<event>
 5      1 +1.8937969e-08 8.39355200e+02 7.81665300e-03 9.50473600e-02
        3 -1    0    0  502    0 +0.0000000000e+00 +0.0000000000e+00 +1.0711111435e+03 1.0711111477e+03 9.5000000000e-02 0.0000e+00 1.0000e+00
       -3 -1    0    0    0  501 -0.0000000000e+00 -0.0000000000e+00 -2.1821613180e+03 2.1821613201e+03 9.5000000000e-02 0.0000e+00 1.0000e+00
  1000022  1    1    2    0    0 +6.2439678579e+02 -3.5016102989e+01 -1.2916984540e+03 1.5603737710e+03 6.1252260000e+02 0.0000e+00 -1.0000e+00
  1000022  1    1    2    0    0 -4.3996981402e+02 +3.1671596387e+02 -4.8214225498e+02 9.4948803498e+02 6.1252260000e+02 0.0000e+00 -1.0000e+00
       21  1    1    2  502  501 -1.8442697177e+02 -2.8169986088e+02 +6.6279053450e+02 7.4341066185e+02 0.0000000000e+00 0.0000e+00 1.0000e+00
<mgrwt>
<rscale>  1 0.83935525E+03</rscale>
<asrwt>0</asrwt>
<pdfrwt beam="1">  1        3 0.16478633E+00 0.83935525E+03</pdfrwt>
<pdfrwt beam="2">  1       -3 0.33571713E+00 0.83935525E+03</pdfrwt>
<totfact> 0.15814550E-02</totfact>
</mgrwt>
</event>
<event>
 5      1 +1.8937969e-08 8.42082800e+02 7.81665300e-03 9.50102500e-02
       -3 -1    0    0    0  501 -0.0000000000e+00 +0.0000000000e+00 +3.0747412780e+02 3.0747414247e+02 9.5000000000e-02 0.0000e+00 1.0000e+00
        3 -1    0    0  502    0 +0.0000000000e+00 -0.0000000000e+00 -2.8145236472e+03 2.8145236488e+03 9.5000000000e-02 0.0000e+00 1.0000e+00
  1000022  1    1    2    0    0 -5.0975437494e+02 -2.9644008318e+02 -1.4424655693e+03 1.6744005195e+03 6.1252260000e+02 0.0000e+00 -1.0000e+00
  1000022  1    1    2    0    0 +4.8926875975e+02 +2.9422886397e+02 -7.2559621278e+02 1.1079839093e+03 6.1252260000e+02 0.0000e+00 -1.0000e+00
       21  1    1    2  502  501 +2.0485615182e+01 +2.2112192103e+00 -3.3898773731e+02 3.3961336246e+02 0.0000000000e+00 0.0000e+00 1.0000e+00
<mgrwt>
<rscale>  1 0.84208279E+03</rscale>
<asrwt>0</asrwt>
<pdfrwt beam="2">  1        3 0.43300362E+00 0.84208279E+03</pdfrwt>
<pdfrwt beam="1">  1       -3 0.47303715E-01 0.84208279E+03</pdfrwt>
<totfact> 0.88692583E-02</totfact>
</mgrwt>
</event>
<event>
 5      1 +1.8937969e-08 7.77229700e+02 7.81665300e-03 9.59357400e-02
       -3 -1    0    0    0  501 -0.0000000000e+00 +0.0000000000e+00 +8.2802332219e+02 8.2802332764e+02 9.5000000000e-02 0.0000e+00 -1.0000e+00
        3 -1    0    0  502    0 +0.0000000000e+00 -0.0000000000e+00 -1.1417619949e+03 1.1417619988e+03 9.5000000000e-02 0.0000e+00 -1.0000e+00
  1000022  1    1    2    0    0 -4.9448497257e+00 -5.8191284626e+02 +1.7412947829e+02 8.6264246528e+02 6.1252260000e+02 0.0000e+00 1.0000e+00
  1000022  1    1    2    0    0 -6.7824309073e+01 +4.3670237291e+02 -5.4883322069e+02 9.3365461443e+02 6.1252260000e+02 0.0000e+00 1.0000e+00
       21  1    1    2  502  501 +7.2769158799e+01 +1.4521047335e+02 +6.0965069697e+01 1.7348824677e+02 0.0000000000e+00 0.0000e+00 1.0000e+00
<mgrwt>
<rscale>  1 0.77722969E+03</rscale>
<asrwt>0</asrwt>
<pdfrwt beam="2">  1        3 0.17565569E+00 0.77722969E+03</pdfrwt>
<pdfrwt beam="1">  1       -3 0.12738820E+00 0.77722969E+03</pdfrwt>
<totfact> 0.26781500E-01</totfact>
</mgrwt>
</event>
<event>
 5      1 +1.8937969e-08 7.91438700e+02 7.81665300e-03 9.57249300e-02
       -3 -1    0    0    0  501 -0.0000000000e+00 +0.0000000000e+00 +8.2907106889e+02 8.2907107433e+02 9.5000000000e-02 0.0000e+00 -1.0000e+00
        3 -1    0    0  502    0 +0.0000000000e+00 -0.0000000000e+00 -9.5709450509e+02 9.5709450981e+02 9.5000000000e-02 0.0000e+00 -1.0000e+00
  1000022  1    1    2    0    0 -2.0312058097e+00 -5.2113293881e+02 +2.7307308985e+02 8.4931532049e+02 6.1252260000e+02 0.0000e+00 1.0000e+00
  1000022  1    1    2    0    0 -2.6901016819e+01 +4.9234002794e+02 -4.2045162495e+02 8.9167587847e+02 6.1252260000e+02 0.0000e+00 1.0000e+00
       21  1    1    2  502  501 +2.8932222628e+01 +2.8792910871e+01 +1.9355098906e+01 4.5174385179e+01 0.0000000000e+00 0.0000e+00 1.0000e+00
<mgrwt>
<rscale>  1 0.79143869E+03</rscale>
<asrwt>0</asrwt>
<pdfrwt beam="2">  1        3 0.14724531E+00 0.79143869E+03</pdfrwt>
<pdfrwt beam="1">  1       -3 0.12754940E+00 0.79143869E+03</pdfrwt>
<totfact> 0.42613904E-01</totfact>
</mgrwt>
</event>
<event>
 5      1 +1.8937969e-08 8.05625500e+02 7.81665300e-03 9.55191000e-02
        2 -1    0    0  502    0 +0.0000000000e+00 +0.0000000000e+00 +1.4843755858e+03 1.4843755858e+03 2.5000000000e-03 0.0000e+00 -1.0000e+00
       -2 -1    0    0    0  501 -0.0000000000e+00 -0.0000000000e+00 -8.5548960835e+02 8.5548960835e+02 2.5000000000e-03 0.0000e+00 1.0000e+00
  1000022  1    1    2    0    0 -3.5982613991e+02 -3.6896590699e+02 -4.6151938391e+02 9.2401015618e+02 6.1252260000e+02 0.0000e+00 1.0000e+00
  1000022  1    1    2    0    0 +3.8468075277e+02 +4.0746642630e+02 +9.1908220629e+02 1.2385088645e+03 6.1252260000e+02 0.0000e+00 -1.0000e+00
       21  1    1    2  502  501 -2.4854612861e+01 -3.8500519309e+01 +1.7132315512e+02 1.7734617348e+02 0.0000000000e+00 0.0000e+00 -1.0000e+00
<mgrwt>
<rscale>  1 0.80562546E+03</rscale>
<asrwt>0</asrwt>
<pdfrwt beam="1">  1        2 0.22836547E+00 0.80562546E+03</pdfrwt>
<pdfrwt beam="2">  1       -2 0.13161379E+00 0.80562546E+03</pdfrwt>
<totfact> 0.55464259E+00</totfact>
</mgrwt>
</event>
<event>
 5      1 +1.8937969e-08 1.24942600e+03 7.81665300e-03 9.07066100e-02
       -2 -1    0    0    0  501 -0.0000000000e+00 +0.0000000000e+00 +7.8621727525e+02 7.8621727525e+02 2.5000000000e-03 0.0000e+00 1.0000e+00
        2 -1    0    0  502    0 +0.0000000000e+00 -0.0000000000e+00 -4.3204241213e+03 4.3204241213e+03 2.5000000000e-03 0.0000e+00 -1.0000e+00
  1000022  1    1    2    0    0 -1.0530567547e+03 +4.0121543329e+02 +4.8416244142e+01 1.2835226608e+03 6.1252260000e+02 0.0000e+00 1.0000e+00
  1000022  1    1    2    0    0 +1.0101633421e+03 -3.9040301002e+02 -3.5643389051e+03 3.7752536675e+03 6.1252260000e+02 0.0000e+00 -1.0000e+00
       21  1    1    2  502  501 +4.2893412550e+01 -1.0812423271e+01 -1.8284185089e+01 4.7865068281e+01 0.0000000000e+00 0.0000e+00 1.0000e+00
<mgrwt>
<rscale>  1 0.12494262E+04</rscale>
<asrwt>0</asrwt>
<pdfrwt beam="2">  1        2 0.66468062E+00 0.12494262E+04</pdfrwt>
<pdfrwt beam="1">  1       -2 0.12095651E+00 0.12494262E+04</pdfrwt>
<totfact> 0.95729516E-02</totfact>
</mgrwt>
</event>
<event>
 5      1 +1.8937969e-08 6.14016700e+02 7.81665300e-03 9.87674500e-02
        3 -1    0    0  502    0 +0.0000000000e+00 +0.0000000000e+00 +6.6758235507e+02 6.6758236182e+02 9.5000000000e-02 0.0000e+00 -1.0000e+00
       -3 -1    0    0    0  501 -0.0000000000e+00 -0.0000000000e+00 -1.2102499829e+03 1.2102499866e+03 9.5000000000e-02 0.0000e+00 -1.0000e+00
  1000022  1    1    2    0    0 +1.4051128505e+01 -5.9825126265e+00 +3.8819800834e+02 7.2533775157e+02 6.1252260000e+02 0.0000e+00 1.0000e+00
  1000022  1    1    2    0    0 -2.9910614775e+01 +3.7082954931e+01 -9.3344877266e+02 1.1174884058e+03 6.1252260000e+02 0.0000e+00 1.0000e+00
       21  1    1    2  502  501 +1.5859486270e+01 -3.1100442305e+01 +2.5831365298e+00 3.5006191033e+01 0.0000000000e+00 0.0000e+00 1.0000e+00
<mgrwt>
<rscale>  1 0.61401672E+03</rscale>
<asrwt>0</asrwt>
<pdfrwt beam="1">  1        3 0.10270498E+00 0.61401672E+03</pdfrwt>
<pdfrwt beam="2">  1       -3 0.18619231E+00 0.61401672E+03</pdfrwt>
<totfact> 0.38737933E-01</totfact>
</mgrwt>
</event>
<event>
 5      1 +1.8937969e-08 8.21435600e+02 7.81665300e-03 9.52949800e-02
        3 -1    0    0  502    0 +0.0000000000e+00 +0.0000000000e+00 +1.2268437913e+03 1.2268437950e+03 9.5000000000e-02 0.0000e+00 1.0000e+00
       -3 -1    0    0    0  501 -0.0000000000e+00 -0.0000000000e+00 -6.6862255220e+02 6.6862255895e+02 9.5000000000e-02 0.0000e+00 1.0000e+00
  1000022  1    1    2    0    0 +4.7313616242e+02 +2.7273164496e+02 -8.5206395180e+01 8.2503602566e+02 6.1252260000e+02 0.0000e+00 -1.0000e+00
  1000022  1    1    2    0    0 -4.9107637299e+02 -2.4907770322e+02 +6.3363459252e+02 1.0391691098e+03 6.1252260000e+02 0.0000e+00 -1.0000e+00
       21  1    1    2  502  501 +1.7940210574e+01 -2.3653941738e+01 +9.7930417586e+00 3.1261218499e+01 0.0000000000e+00 0.0000e+00 -1.0000e+00
<mgrwt>
<rscale>  1 0.82143561E+03</rscale>
<asrwt>0</asrwt>
<pdfrwt beam="1">  1        3 0.18874520E+00 0.82143561E+03</pdfrwt>
<pdfrwt beam="2">  1       -3 0.10286501E+00 0.82143561E+03</pdfrwt>
<totfact> 0.36720923E-01</totfact>
</mgrwt>
</event>
<event>
 5      1 +1.8937969e-08 6.59473400e+02 7.81665300e-03 9.78916400e-02
        1 -1    0    0  502    0 +0.0000000000e+00 +0.0000000000e+00 +7.8042593055e+02 7.8042593057e+02 5.0000000000e-03 0.0000e+00 -1.0000e+00
       -1 -1    0    0    0  501 -0.0000000000e+00 -0.0000000000e+00 -1.9172590022e+03 1.9172590022e+03 5.0000000000e-03 0.0000e+00 1.0000e+00
  1000022  1    1    2    0    0 -1.5525021209e+02 +1.6057042269e+02 -7.6012760485e+02 1.0014306767e+03 6.1252260000e+02 0.0000e+00 1.0000e+00
  1000022  1    1    2    0    0 +1.6190213349e+02 -1.8838152297e+02 +4.9393785274e+02 8.2514146479e+02 6.1252260000e+02 0.0000e+00 -1.0000e+00
       21  1    1    2  502  501 -6.6519213946e+00 +2.7811100279e+01 -8.7064331955e+02 8.7111279134e+02 0.0000000000e+00 0.0000e+00 -1.0000e+00
<mgrwt>
<rscale>  1 0.65947338E+03</rscale>
<asrwt>0</asrwt>
<pdfrwt beam="1">  1        1 0.12006553E+00 0.65947338E+03</pdfrwt>
<pdfrwt beam="2">  1       -1 0.29496292E+00 0.65947338E+03</pdfrwt>
<totfact> 0.88260008E-01</totfact>
</mgrwt>
</event>
<event>
 5      1 +1.8937969e-08 6.79714100e+02 7.81665300e-03 9.75256700e-02
       -1 -1    0    0    0  501 -0.0000000000e+00 +0.0000000000e+00 +1.9429075947e+02 1.9429075954e+02 5.0000000000e-03 0.0000e+00 1.0000e+00
        1 -1    0    0  502    0 +0.0000000000e+00 -0.0000000000e+00 -2.5994254514e+03 2.5994254514e+03 5.0000000000e-03 0.0000e+00 -1.0000e+00
  1000022  1    1    2    0    0 +2.7321476402e+02 +6.9808802958e+01 -9.3196580942e+02 1.1503320311e+03 6.1252260000e+02 0.0000e+00 1.0000e+00
  1000022  1    1    2    0    0 -2.9752245997e+02 -6.0527477566e+01 -1.4640729201e+03 1.6158207328e+03 6.1252260000e+02 0.0000e+00 -1.0000e+00
       21  1    1    2  502  501 +2.4307695941e+01 -9.2813253920e+00 -9.0959624425e+00 2.7563447095e+01 0.0000000000e+00 0.0000e+00 -1.0000e+00
<mgrwt>
<rscale>  1 0.67971409E+03</rscale>
<asrwt>0</asrwt>
<pdfrwt beam="2">  1        1 0.39991158E+00 0.67971409E+03</pdfrwt>
<pdfrwt beam="1">  1       -1 0.29890888E-01 0.67971409E+03</pdfrwt>
<totfact> 0.12638178E+01</totfact>
</mgrwt>
</event>
<event>
 5      1 +1.8937969e-08 8.75303700e+02 7.81665300e-03 9.45699100e-02
       -3 -1    0    0    0  501 -0.0000000000e+00 +0.0000000000e+00 +7.1571364331e+02 7.1571364962e+02 9.5000000000e-02 0.0000e+00 1.0000e+00
        3 -1    0    0  502    0 +0.0000000000e+00 -0.0000000000e+00 -1.1610787962e+03 1.1610788001e+03 9.5000000000e-02 0.0000e+00 1.0000e+00
  1000022  1    1    2    0    0 -4.9826197516e+02 +4.2413340821e+02 -3.0415580704e+02 9.4649291297e+02 6.1252260000e+02 0.0000e+00 -1.0000e+00
  1000022  1    1    2    0    0 +4.4604499180e+02 -4.0541670388e+02 -1.0924220160e+02 8.6627745707e+02 6.1252260000e+02 0.0000e+00 -1.0000e+00
       21  1    1    2  502  501 +5.2216983351e+01 -1.8716704326e+01 -3.1967144230e+01 6.4022079640e+01 0.0000000000e+00 0.0000e+00 -1.0000e+00
<mgrwt>
<rscale>  1 0.87530366E+03</rscale>
<asrwt>0</asrwt>
<pdfrwt beam="2">  1        3 0.17862751E+00 0.87530366E+03</pdfrwt>
<pdfrwt beam="1">  1       -3 0.11010979E+00 0.87530366E+03</pdfrwt>
<totfact> 0.36272802E-01</totfact>
</mgrwt>
</event>
<event>
 5      1 +1.8937969e-08 7.37832400e+02 7.81665300e-03 9.65463500e-02
        1 -1    0    0  502    0 -0.0000000000e+00 +0.0000000000e+00 +6.1243895214e+02 6.1243895216e+02 5.0000000000e-03 0.0000e+00 -1.0000e+00
       21 -1    0    0  501  502 +0.0000000000e+00 -0.0000000000e+00 -1.5709112038e+03 1.5709112038e+03 0.0000000000e+00 0.0000e+00 1.0000e+00
  1000022  1    1    2    0    0 -2.7182010306e+02 -2.0082525804e+02 -6.6934223652e+02 9.6820448140e+02 6.1252260000e+02 0.0000e+00 1.0000e+00
  1000022  1    1    2    0    0 +3.7275467498e+02 +2.3293196561e+02 +1.4547358896e+02 7.6782149548e+02 6.1252260000e+02 0.0000e+00 -1.0000e+00
        1  1    1    2  501    0 -1.0093457192e+02 -3.2106707574e+01 -4.3460360414e+02 4.4732417913e+02 5.0000000000e-03 0.0000e+00 -1.0000e+00
<mgrwt>
<rscale>  1 0.73783244E+03</rscale>
<asrwt>0</asrwt>
<pdfrwt beam="2">  1       21 0.24167864E+00 0.73783244E+03</pdfrwt>
<pdfrwt beam="1">  1        1 0.94221378E-01 0.73783244E+03</pdfrwt>
<totfact> 0.20845907E+01</totfact>
</mgrwt>
</event>
<event>
 5      1 +1.8937969e-08 7.30337500e+02 7.81665300e-03 9.66671300e-02
       -2 -1    0    0    0  501 -0.0000000000e+00 +0.0000000000e+00 +1.2771869156e+03 1.2771869156e+03 2.5000000000e-03 0.0000e+00 1.0000e+00
        2 -1    0    0  502    0 +0.0000000000e+00 -0.0000000000e+00 -1.2294330982e+03 1.2294330982e+03 2.5000000000e-03 0.0000e+00 -1.0000e+00
  1000022  1    1    2    0    0 +1.9329802683e+01 -3.9817771642e+02 +9.6403284597e+02 1.2097364997e+03 6.1252260000e+02 0.0000e+00 1.0000e+00
  1000022  1    1    2    0    0 +2.9536464383e-01 +3.9310290111e+02 -5.0675135113e+02 8.8685446691e+02 6.1252260000e+02 0.0000e+00 -1.0000e+00
       21  1    1    2  502  501 -1.9625167327e+01 +5.0748153047e+00 -4.0952767742e+02 4.1002904717e+02 0.0000000000e+00 0.0000e+00 -1.0000e+00
<mgrwt>
<rscale>  1 0.73033750E+03</rscale>
<asrwt>0</asrwt>
<pdfrwt beam="2">  1        2 0.18914355E+00 0.73033750E+03</pdfrwt>
<pdfrwt beam="1">  1       -2 0.19649030E+00 0.73033750E+03</pdfrwt>
<totfact> 0.26291314E+00</totfact>
</mgrwt>
</event>
<event>
 5      1 +1.8937969e-08 6.60607200e+02 7.81665300e-03 9.78707700e-02
       -1 -1    0    0    0  501 -0.0000000000e+00 +0.0000000000e+00 +4.4606724669e+02 4.4606724672e+02 5.0000000000e-03 0.0000e+00 1.0000e+00
        1 -1    0    0  502    0 +0.0000000000e+00 -0.0000000000e+00 -3.3701615160e+03 3.3701615160e+03 5.0000000000e-03 0.0000e+00 -1.0000e+00
  1000022  1    1    2    0    0 +2.3763828794e+02 +7.9180503272e+01 +4.8561939515e+01 6.6353877466e+02 6.1252260000e+02 0.0000e+00 1.0000e+00
  1000022  1    1    2    0    0 -2.8979157216e+02 +2.3424443658e+02 -2.2921179842e+03 2.4016324449e+03 6.1252260000e+02 0.0000e+00 -1.0000e+00
       21  1    1    2  502  501 +5.2153284216e+01 -3.1342493985e+02 -6.8053822458e+02 7.5105754313e+02 0.0000000000e+00 0.0000e+00 -1.0000e+00
<mgrwt>
<rscale>  1 0.66060719E+03</rscale>
<asrwt>0</asrwt>
<pdfrwt beam="2">  1        1 0.51848637E+00 0.66060719E+03</pdfrwt>
<pdfrwt beam="1">  1       -1 0.68625732E-01 0.66060719E+03</pdfrwt>
<totfact> 0.75579237E-01</totfact>
</mgrwt>
</event>
<event>
 5      1 +1.8937969e-08 6.69992000e+02 7.81665300e-03 9.76997200e-02
       -2 -1    0    0    0  501 -0.0000000000e+00 +0.0000000000e+00 +7.8261617218e+02 7.8261617219e+02 2.5000000000e-03 0.0000e+00 1.0000e+00
        2 -1    0    0  502    0 +0.0000000000e+00 -0.0000000000e+00 -7.4213553320e+02 7.4213553321e+02 2.5000000000e-03 0.0000e+00 -1.0000e+00
  1000022  1    1    2    0    0 -1.7092246979e+02 -1.8346688373e+02 +3.0427216143e+02 7.2845045942e+02 6.1252260000e+02 0.0000e+00 1.0000e+00
  1000022  1    1    2    0    0 +2.0353414437e+02 +1.9276232975e+02 -3.0790759726e+02 7.4065814494e+02 6.1252260000e+02 0.0000e+00 -1.0000e+00
       21  1    1    2  502  501 -3.2611674584e+01 -9.2954460188e+00 +4.4116074813e+01 5.5643101035e+01 0.0000000000e+00 0.0000e+00 1.0000e+00
<mgrwt>
<rscale>  1 0.66999202E+03</rscale>
<asrwt>0</asrwt>
<pdfrwt beam="2">  1        2 0.11417470E+00 0.66999202E+03</pdfrwt>
<pdfrwt beam="1">  1       -2 0.12040249E+00 0.66999202E+03</pdfrwt>
<totfact> 0.20465916E+01</totfact>
</mgrwt>
</event>
<event>
 5      1 +1.8937969e-08 7.51918500e+02 7.81665300e-03 9.63234500e-02
        3 -1    0    0  502    0 +0.0000000000e+00 +0.0000000000e+00 +2.3487078324e+02 2.3487080245e+02 9.5000000000e-02 0.0000e+00 1.0000e+00
       -3 -1    0    0    0  501 -0.0000000000e+00 -0.0000000000e+00 -3.8147414138e+03 3.8147414150e+03 9.5000000000e-02 0.0000e+00 1.0000e+00
  1000022  1    1    2    0    0 -2.7639789856e+02 +3.2093566542e+02 -2.3901993862e+03 2.5035240245e+03 6.1252260000e+02 0.0000e+00 -1.0000e+00
  1000022  1    1    2    0    0 +2.9653804334e+02 -3.2541539474e+02 -6.2105954435e+02 9.7710228913e+02 6.1252260000e+02 0.0000e+00 -1.0000e+00
       21  1    1    2  502  501 -2.0140144779e+01 +4.4797293161e+00 -5.6861169996e+02 5.6898590381e+02 0.0000000000e+00 0.0000e+00 1.0000e+00
<mgrwt>
<rscale>  1 0.75191853E+03</rscale>
<asrwt>0</asrwt>
<pdfrwt beam="1">  1        3 0.36133971E-01 0.75191853E+03</pdfrwt>
<pdfrwt beam="2">  1       -3 0.58688325E+00 0.75191853E+03</pdfrwt>
<totfact> 0.22426638E-02</totfact>
</mgrwt>
</event>
<event>
 5      1 +1.8937969e-08 9.64107600e+02 7.81665300e-03 9.34881100e-02
       -1 -1    0    0    0  501 -0.0000000000e+00 +0.0000000000e+00 +1.3056400174e+03 1.3056400174e+03 5.0000000000e-03 0.0000e+00 1.0000e+00
        1 -1    0    0  502    0 +0.0000000000e+00 -0.0000000000e+00 -7.3425479038e+02 7.3425479040e+02 5.0000000000e-03 0.0000e+00 -1.0000e+00
  1000022  1    1    2    0    0 -7.2988621120e+02 +1.2756486728e+02 +3.6651348598e+02 1.0288453468e+03 6.1252260000e+02 0.0000e+00 1.0000e+00
  1000022  1    1    2    0    0 +7.3241298670e+02 -1.5043626779e+02 +1.9513471827e+02 9.8606356161e+02 6.1252260000e+02 0.0000e+00 -1.0000e+00
       21  1    1    2  502  501 -2.5267755023e+00 +2.2871400511e+01 +9.7370227191e+00 2.4985899367e+01 0.0000000000e+00 0.0000e+00 -1.0000e+00
<mgrwt>
<rscale>  1 0.96410764E+03</rscale>
<asrwt>0</asrwt>
<pdfrwt beam="2">  1        1 0.11296228E+00 0.96410764E+03</pdfrwt>
<pdfrwt beam="1">  1       -1 0.20086769E+00 0.96410764E+03</pdfrwt>
<totfact> 0.37893120E+00</totfact>
</mgrwt>
</event>
<event>
 5      1 +1.8937969e-08 1.97638600e+03 7.81665300e-03 8.61774100e-02
        2 -1    0    0  502    0 -0.0000000000e+00 +0.0000000000e+00 +2.6723638520e+03 2.6723638520e+03 2.5000000000e-03 0.0000e+00 1.0000e+00
       21 -1    0    0  501  502 +0.0000000000e+00 -0.0000000000e+00 -1.2050287509e+03 1.2050287509e+03 0.0000000000e+00 0.0000e+00 1.0000e+00
  1000022  1    1    2    0    0 -5.1149771162e+02 -4.4673204738e+02 +2.3574435713e+02 9.4443568790e+02 6.1252260000e+02 0.0000e+00 -1.0000e+00
  1000022  1    1    2    0    0 -5.6179478951e+02 -6.5918278653e+02 +2.0283400301e+02 1.0800281940e+03 6.1252260000e+02 0.0000e+00 1.0000e+00
        2  1    1    2  501    0 +1.0732925011e+03 +1.1059148339e+03 +1.0287567409e+03 1.8529287209e+03 2.5000000000e-03 0.0000e+00 1.0000e+00
<mgrwt>
<rscale>  1 0.19763864E+04</rscale>
<asrwt>0</asrwt>
<pdfrwt beam="2">  1       21 0.18538904E+00 0.19763864E+04</pdfrwt>
<pdfrwt beam="1">  1        2 0.41113290E+00 0.19763864E+04</pdfrwt>
<totfact> 0.37823144E+00</totfact>
</mgrwt>
</event>
<event>
 5      1 +1.8937969e-08 7.87282500e+02 7.81665300e-03 9.57861000e-02
       -3 -1    0    0    0  501 -0.0000000000e+00 +0.0000000000e+00 +1.1632580476e+03 1.1632580515e+03 9.5000000000e-02 0.0000e+00 1.0000e+00
        3 -1    0    0  502    0 +0.0000000000e+00 -0.0000000000e+00 -8.6358834906e+02 8.6358835429e+02 9.5000000000e-02 0.0000e+00 1.0000e+00
  1000022  1    1    2    0    0 +4.1469505944e+02 +2.5768499744e+02 -3.6833044464e+02 8.6557772741e+02 6.1252260000e+02 0.0000e+00 -1.0000e+00
  1000022  1    1    2    0    0 -4.2711846694e+02 -2.8104435442e+02 +4.0102248145e+02 8.9298324737e+02 6.1252260000e+02 0.0000e+00 -1.0000e+00
       21  1    1    2  502  501 +1.2423407492e+01 +2.3359356981e+01 +2.6697766171e+02 2.6828543096e+02 0.0000000000e+00 0.0000e+00 1.0000e+00
<mgrwt>
<rscale>  1 0.78728246E+03</rscale>
<asrwt>0</asrwt>
<pdfrwt beam="2">  1        3 0.13285975E+00 0.78728246E+03</pdfrwt>
<pdfrwt beam="1">  1       -3 0.17896278E+00 0.78728246E+03</pdfrwt>
<totfact> 0.22837622E-01</totfact>
</mgrwt>
</event>
<event>
 5      1 +1.8937969e-08 7.06693700e+02 7.81665300e-03 9.70585300e-02
       -2 -1    0    0    0  501 -0.0000000000e+00 +0.0000000000e+00 +3.3738931695e+02 3.3738931696e+02 2.5000000000e-03 0.0000e+00 1.0000e+00
        2 -1    0    0  502    0 +0.0000000000e+00 -0.0000000000e+00 -2.0156705123e+03 2.0156705123e+03 2.5000000000e-03 0.0000e+00 -1.0000e+00
  1000022  1    1    2    0    0 +3.2939268956e+02 -6.0107364752e+00 -1.2710387111e+03 1.4488819874e+03 6.1252260000e+02 0.0000e+00 -1.0000e+00
  1000022  1    1    2    0    0 -3.6116322815e+02 -3.1832338244e+00 -2.6614154062e+02 7.5925243859e+02 6.1252260000e+02 0.0000e+00 1.0000e+00
       21  1    1    2  502  501 +3.1770538592e+01 +9.1939702996e+00 -1.4110094368e+02 1.4492540329e+02 0.0000000000e+00 0.0000e+00 -1.0000e+00
<mgrwt>
<rscale>  1 0.70669372E+03</rscale>
<asrwt>0</asrwt>
<pdfrwt beam="2">  1        2 0.31010315E+00 0.70669372E+03</pdfrwt>
<pdfrwt beam="1">  1       -2 0.51906050E-01 0.70669372E+03</pdfrwt>
<totfact> 0.23869778E+01</totfact>
</mgrwt>
</event>
<event>
 5      1 +1.8937969e-08 6.90324300e+02 7.81665300e-03 9.73392400e-02
       -2 -1    0    0    0  501 -0.0000000000e+00 +0.0000000000e+00 +5.2335323634e+02 5.2335323634e+02 2.5000000000e-03 0.0000e+00 1.0000e+00
        2 -1    0    0  502    0 +0.0000000000e+00 -0.0000000000e+00 -1.1164825424e+03 1.1164825424e+03 2.5000000000e-03 0.0000e+00 -1.0000e+00
  1000022  1    1    2    0    0 -2.2871085297e+02 -2.0226089019e+02 -4.3748045432e+02 8.1227532610e+02 6.1252260000e+02 0.0000e+00 -1.0000e+00
  1000022  1    1    2    0    0 +2.4177079480e+02 +2.1851840450e+02 -2.3963899235e+01 6.9423455280e+02 6.1252260000e+02 0.0000e+00 1.0000e+00
       21  1    1    2  502  501 -1.3059941836e+01 -1.6257514310e+01 -1.3168495255e+02 1.3332589989e+02 0.0000000000e+00 0.0000e+00 1.0000e+00
<mgrwt>
<rscale>  1 0.69032429E+03</rscale>
<asrwt>0</asrwt>
<pdfrwt beam="2">  1        2 0.17176654E+00 0.69032429E+03</pdfrwt>
<pdfrwt beam="1">  1       -2 0.80515883E-01 0.69032429E+03</pdfrwt>
<totfact> 0.29692024E+01</totfact>
</mgrwt>
</event>
<event>
 5      1 +1.8937969e-08 6.42489700e+02 7.81665300e-03 9.82097500e-02
       -3 -1    0    0    0  501 -0.0000000000e+00 +0.0000000000e+00 +1.5988807390e+03 1.5988807418e+03 9.5000000000e-02 0.0000e+00 -1.0000e+00
        3 -1    0    0  502    0 +0.0000000000e+00 -0.0000000000e+00 -6.3557853614e+02 6.3557854324e+02 9.5000000000e-02 0.0000e+00 -1.0000e+00
  1000022  1    1    2    0    0 -1.0047371713e+02 +1.3367498689e+02 +1.1762134340e+03 1.3366472788e+03 6.1252260000e+02 0.0000e+00 -1.0000e+00
  1000022  1    1    2    0    0 +2.2276503179e+02 -2.4989844309e+02 -1.3082417589e+02 7.1019179927e+02 6.1252260000e+02 0.0000e+00 -1.0000e+00
       21  1    1    2  502  501 -1.2229131466e+02 +1.1622345620e+02 -8.2087055319e+01 1.8762020697e+02 0.0000000000e+00 0.0000e+00 1.0000e+00
<mgrwt>
<rscale>  1 0.64248973E+03</rscale>
<asrwt>0</asrwt>
<pdfrwt beam="2">  1        3 0.97781314E-01 0.64248973E+03</pdfrwt>
<pdfrwt beam="1">  1       -3 0.24598165E+00 0.64248973E+03</pdfrwt>
<totfact> 0.18798446E-01</totfact>
</mgrwt>
</event>
<event>
 5      1 +1.8937969e-08 8.15227800e+02 7.81665300e-03 9.53823300e-02
       -2 -1    0    0    0  501 -0.0000000000e+00 +0.0000000000e+00 +4.6664283413e+02 4.6664283414e+02 2.5000000000e-03 0.0000e+00 1.0000e+00
        2 -1    0    0  502    0 +0.0000000000e+00 -0.0000000000e+00 -1.6614864291e+03 1.6614864291e+03 2.5000000000e-03 0.0000e+00 -1.0000e+00
  1000022  1    1    2    0    0 -5.1734143465e+02 -7.7791981638e+01 -8.7163017249e+02 1.1868516527e+03 6.1252260000e+02 0.0000e+00 -1.0000e+00
  1000022  1    1    2    0    0 +5.4224274673e+02 +6.3679475712e+01 -2.4245885441e+02 8.5560066830e+02 6.1252260000e+02 0.0000e+00 1.0000e+00
       21  1    1    2  502  501 -2.4901312078e+01 +1.4112505925e+01 -8.0754568041e+01 8.5676942209e+01 0.0000000000e+00 0.0000e+00 1.0000e+00
<mgrwt>
<rscale>  1 0.81522781E+03</rscale>
<asrwt>0</asrwt>
<pdfrwt beam="2">  1        2 0.25561329E+00 0.81522781E+03</pdfrwt>
<pdfrwt beam="1">  1       -2 0.71791206E-01 0.81522781E+03</pdfrwt>
<totfact> 0.18463451E+01</totfact>
</mgrwt>
</event>
<event>
 5      1 +1.8937969e-08 8.15266700e+02 7.81665300e-03 9.53817800e-02
       -3 -1    0    0    0  501 -0.0000000000e+00 +0.0000000000e+00 +1.0969168049e+03 1.0969168090e+03 9.5000000000e-02 0.0000e+00 -1.0000e+00
        3 -1    0    0  502    0 +0.0000000000e+00 -0.0000000000e+00 -9.7503303950e+02 9.7503304413e+02 9.5000000000e-02 0.0000e+00 -1.0000e+00
  1000022  1    1    2    0    0 +1.3339465009e+02 +5.2497851341e+02 +4.3224932343e+02 9.2488917462e+02 6.1252260000e+02 0.0000e+00 1.0000e+00
  1000022  1    1    2    0    0 -3.7515951831e+02 -4.3204409756e+02 -2.9116828830e+02 8.8733853407e+02 6.1252260000e+02 0.0000e+00 1.0000e+00
       21  1    1    2  502  501 +2.4176486822e+02 -9.2934415847e+01 -1.9197269725e+01 2.5972214445e+02 0.0000000000e+00 0.0000e+00 -1.0000e+00
<mgrwt>
<rscale>  1 0.81526666E+03</rscale>
<asrwt>0</asrwt>
<pdfrwt beam="2">  1        3 0.15000508E+00 0.81526666E+03</pdfrwt>
<pdfrwt beam="1">  1       -3 0.16875643E+00 0.81526666E+03</pdfrwt>
<totfact> 0.19634196E-01</totfact>
</mgrwt>
</event>
<event>
 5      1 +1.8937969e-08 7.66456600e+02 7.81665300e-03 9.60988000e-02
        1 -1    0    0  502    0 +0.0000000000e+00 +0.0000000000e+00 +1.3116447207e+03 1.3116447208e+03 5.0000000000e-03 0.0000e+00 -1.0000e+00
       -1 -1    0    0    0  501 -0.0000000000e+00 -0.0000000000e+00 -1.0525473070e+03 1.0525473071e+03 5.0000000000e-03 0.0000e+00 1.0000e+00
  1000022  1    1    2    0    0 +1.8064566610e+02 +4.2305776833e+02 +9.7609746877e+02 1.2407904481e+03 6.1252260000e+02 0.0000e+00 -1.0000e+00
  1000022  1    1    2    0    0 -9.8520236761e+01 -4.6239647150e+02 -6.3927697654e+02 1.0036810859e+03 6.1252260000e+02 0.0000e+00 1.0000e+00
       21  1    1    2  502  501 -8.2125429337e+01 +3.9338703170e+01 -7.7723078533e+01 1.1972049385e+02 0.0000000000e+00 0.0000e+00 -1.0000e+00
<mgrwt>
<rscale>  1 0.76645662E+03</rscale>
<asrwt>0</asrwt>
<pdfrwt beam="1">  1        1 0.20179150E+00 0.76645662E+03</pdfrwt>
<pdfrwt beam="2">  1       -1 0.16193036E+00 0.76645662E+03</pdfrwt>
<totfact> 0.26090598E+00</totfact>
</mgrwt>
</event>
<event>
 5      1 +1.8937969e-08 6.65094400e+02 7.81665300e-03 9.77886100e-02
       21 -1    0    0  501  502 +0.0000000000e+00 +0.0000000000e+00 +1.2653176710e+03 1.2653176710e+03 0.0000000000e+00 0.0000e+00 -1.0000e+00
        3 -1    0    0  502    0 -0.0000000000e+00 -0.0000000000e+00 -1.1351334998e+03 1.1351335037e+03 9.5000000000e-02 0.0000e+00 1.0000e+00
  1000022  1    1    2    0    0 -1.7766732033e+02 +1.7166452156e+02 -8.0350187206e+02 1.0401122913e+03 6.1252260000e+02 0.0000e+00 -1.0000e+00
  1000022  1    1    2    0    0 +2.4770432322e+02 -1.9942344889e+02 +3.5375425848e+02 7.7553410925e+02 6.1252260000e+02 0.0000e+00 -1.0000e+00
        3  1    1    2  501    0 -7.0037002890e+01 +2.7758927330e+01 +5.7993178481e+02 5.8480477416e+02 9.5000000000e-02 0.0000e+00 -1.0000e+00
<mgrwt>
<rscale>  1 0.66509442E+03</rscale>
<asrwt>0</asrwt>
<pdfrwt beam="1">  1       21 0.19466426E+00 0.66509442E+03</pdfrwt>
<pdfrwt beam="2">  1        3 0.17463592E+00 0.66509442E+03</pdfrwt>
<totfact> 0.13114546E+00</totfact>
</mgrwt>
</event>
<event>
 5      1 +1.8937969e-08 6.51252200e+02 7.81665300e-03 9.80443200e-02
        3 -1    0    0  502    0 +0.0000000000e+00 +0.0000000000e+00 +2.9089780425e+02 2.9089781976e+02 9.5000000000e-02 0.0000e+00 1.0000e+00
       -3 -1    0    0    0  501 -0.0000000000e+00 -0.0000000000e+00 -3.3578704620e+03 3.3578704633e+03 9.5000000000e-02 0.0000e+00 1.0000e+00
  1000022  1    1    2    0    0 +4.9657796602e+01 -2.0896806068e+02 -2.8077650162e+02 7.0721490830e+02 6.1252260000e+02 0.0000e+00 -1.0000e+00
  1000022  1    1    2    0    0 -2.6794636417e+02 +1.7744408394e+02 -2.3902380746e+03 2.4883134139e+03 6.1252260000e+02 0.0000e+00 -1.0000e+00
       21  1    1    2  502  501 +2.1828856757e+02 +3.1523976741e+01 -3.9595808156e+02 4.5323996095e+02 0.0000000000e+00 0.0000e+00 -1.0000e+00
<mgrwt>
<rscale>  1 0.65125216E+03</rscale>
<asrwt>0</asrwt>
<pdfrwt beam="1">  1        3 0.44753512E-01 0.65125216E+03</pdfrwt>
<pdfrwt beam="2">  1       -3 0.51659543E+00 0.65125216E+03</pdfrwt>
<totfact> 0.34376078E-02</totfact>
</mgrwt>
</event>
<event>
 5      1 +1.8937969e-08 6.41285400e+02 7.81665300e-03 9.82327000e-02
       -3 -1    0    0    0  501 -0.0000000000e+00 +0.0000000000e+00 +1.5353911594e+03 1.5353911623e+03 9.5000000000e-02 0.0000e+00 -1.0000e+00
        3 -1    0    0  502    0 +0.0000000000e+00 -0.0000000000e+00 -5.3193409061e+02 5.3193409909e+02 9.5000000000e-02 0.0000e+00 -1.0000e+00
  1000022  1    1    2    0    0 +1.1422575444e+02 -1.4534140995e+02 +1.1928588094e+03 1.3536128410e+03 6.1252260000e+02 0.0000e+00 1.0000e+00
  1000022  1    1    2    0    0 -1.4754641413e+02 +1.5877020542e+02 -1.6525326103e+02 6.7042560978e+02 6.1252260000e+02 0.0000e+00 1.0000e+00
       21  1    1    2  502  501 +3.3320659693e+01 -1.3428795474e+01 -2.4148479638e+01 4.3286810683e+01 0.0000000000e+00 0.0000e+00 1.0000e+00
<mgrwt>
<rscale>  1 0.64128542E+03</rscale>
<asrwt>0</asrwt>
<pdfrwt beam="2">  1        3 0.81836016E-01 0.64128542E+03</pdfrwt>
<pdfrwt beam="1">  1       -3 0.23621402E+00 0.64128542E+03</pdfrwt>
<totfact> 0.32155065E-01</totfact>
</mgrwt>
</event>
<event>
 5      1 +1.8937969e-08 8.48274200e+02 7.81665300e-03 9.49265600e-02
        3 -1    0    0  502    0 +0.0000000000e+00 +0.0000000000e+00 +3.7752140060e+02 3.7752141256e+02 9.5000000000e-02 0.0000e+00 1.0000e+00
       -3 -1    0    0    0  501 -0.0000000000e+00 -0.0000000000e+00 -2.1981352070e+03 2.1981352091e+03 9.5000000000e-02 0.0000e+00 1.0000e+00
  1000022  1    1    2    0    0 -4.8286196265e+02 +3.7180681107e+02 -5.5088995338e+02 1.0247241853e+03 6.1252260000e+02 0.0000e+00 -1.0000e+00
  1000022  1    1    2    0    0 +4.4109544597e+02 -3.2991339699e+02 -1.1230552923e+03 1.3927832448e+03 6.1252260000e+02 0.0000e+00 -1.0000e+00
       21  1    1    2  502  501 +4.1766516689e+01 -4.1893414085e+01 -1.4666856076e+02 1.5814919151e+02 0.0000000000e+00 0.0000e+00 -1.0000e+00
<mgrwt>
<rscale>  1 0.84827422E+03</rscale>
<asrwt>0</asrwt>
<pdfrwt beam="1">  1        3 0.58080218E-01 0.84827422E+03</pdfrwt>
<pdfrwt beam="2">  1       -3 0.33817464E+00 0.84827422E+03</pdfrwt>
<totfact> 0.17890808E-01</totfact>
</mgrwt>
</event>
<event>
 5      1 +1.8937969e-08 9.04056600e+02 7.81665300e-03 9.42052500e-02
        3 -1    0    0  502    0 +0.0000000000e+00 +0.0000000000e+00 +1.0319185608e+03 1.0319185652e+03 9.5000000000e-02 0.0000e+00 1.0000e+00
       -3 -1    0    0    0  501 -0.0000000000e+00 -0.0000000000e+00 -3.6910007970e+03 3.6910007982e+03 9.5000000000e-02 0.0000e+00 1.0000e+00
  1000022  1    1    2    0    0 -2.4082565782e+02 -4.2082171100e+02 -9.7322315057e+02 1.2479724140e+03 6.1252260000e+02 0.0000e+00 1.0000e+00
  1000022  1    1    2    0    0 +2.5040513939e+02 +7.6070042895e+02 -2.4441360476e+03 2.6439275389e+03 6.1252260000e+02 0.0000e+00 -1.0000e+00
       21  1    1    2  502  501 -9.5794815683e+00 -3.3987871796e+02 +7.5827696199e+02 8.3101941040e+02 0.0000000000e+00 0.0000e+00 1.0000e+00
<mgrwt>
<rscale>  1 0.90405660E+03</rscale>
<asrwt>0</asrwt>
<pdfrwt beam="1">  1        3 0.15875670E+00 0.90405660E+03</pdfrwt>
<pdfrwt beam="2">  1       -3 0.56784627E+00 0.90405660E+03</pdfrwt>
<totfact> 0.98531428E-04</totfact>
</mgrwt>
</event>
<event>
 5      1 +1.8937969e-08 7.45660300e+02 7.81665300e-03 9.64218300e-02
       -1 -1    0    0    0  501 -0.0000000000e+00 +0.0000000000e+00 +5.2065626428e+02 5.2065626431e+02 5.0000000000e-03 0.0000e+00 -1.0000e+00
        1 -1    0    0  502    0 +0.0000000000e+00 -0.0000000000e+00 -1.7279052092e+03 1.7279052092e+03 5.0000000000e-03 0.0000e+00 -1.0000e+00
  1000022  1    1    2    0    0 -3.9557933852e+02 +1.7509891647e+02 -1.1996294155e+03 1.4147216383e+03 6.1252260000e+02 0.0000e+00 1.0000e+00
  1000022  1    1    2    0    0 +3.9619545198e+02 -9.4254524327e+01 -5.9213602922e+01 7.3793288164e+02 6.1252260000e+02 0.0000e+00 1.0000e+00
       21  1    1    2  502  501 -6.1611345977e-01 -8.0844392146e+01 +5.1594073508e+01 9.5906953650e+01 0.0000000000e+00 0.0000e+00 -1.0000e+00
<mgrwt>
<rscale>  1 0.74566034E+03</rscale>
<asrwt>0</asrwt>
<pdfrwt beam="2">  1        1 0.26583157E+00 0.74566034E+03</pdfrwt>
<pdfrwt beam="1">  1       -1 0.80100965E-01 0.74566034E+03</pdfrwt>
<totfact> 0.74092558E+00</totfact>
</mgrwt>
</event>
<event>
 5      1 +1.8937969e-08 8.42318900e+02 7.81665300e-03 9.50070500e-02
        3 -1    0    0  502    0 +0.0000000000e+00 +0.0000000000e+00 +5.8638950961e+02 5.8638951730e+02 9.5000000000e-02 0.0000e+00 -1.0000e+00
       -3 -1    0    0    0  501 -0.0000000000e+00 -0.0000000000e+00 -1.4237401204e+03 1.4237401236e+03 9.5000000000e-02 0.0000e+00 -1.0000e+00
  1000022  1    1    2    0    0 +5.4429319794e+02 +2.0794096657e+02 -7.2303318902e+02 1.1124097531e+03 6.1252260000e+02 0.0000e+00 1.0000e+00
  1000022  1    1    2    0    0 -5.4727965390e+02 -1.6316197001e+02 -1.3507676422e+02 8.4827266594e+02 6.1252260000e+02 0.0000e+00 1.0000e+00
       21  1    1    2  502  501 +2.9864559600e+00 -4.4778996562e+01 +2.0759342406e+01 4.9447221857e+01 0.0000000000e+00 0.0000e+00 1.0000e+00
<mgrwt>
<rscale>  1 0.84231887E+03</rscale>
<asrwt>0</asrwt>
<pdfrwt beam="1">  1        3 0.90213772E-01 0.84231887E+03</pdfrwt>
<pdfrwt beam="2">  1       -3 0.21903694E+00 0.84231887E+03</pdfrwt>
<totfact> 0.32046206E-01</totfact>
</mgrwt>
</event>
<event>
 5      1 +1.8937969e-08 8.05577900e+02 7.81665300e-03 9.55197800e-02
        3 -1    0    0  502    0 +0.0000000000e+00 +0.0000000000e+00 +5.9414083772e+02 5.9414084531e+02 9.5000000000e-02 0.0000e+00 -1.0000e+00
       -3 -1    0    0    0  501 -0.0000000000e+00 -0.0000000000e+00 -1.4135171432e+03 1.4135171464e+03 9.5000000000e-02 0.0000e+00 -1.0000e+00
  1000022  1    1    2    0    0 -4.9578613951e+02 -1.5812091903e+01 -6.0697058878e+01 7.9052007365e+02 6.1252260000e+02 0.0000e+00 1.0000e+00
  1000022  1    1    2    0    0 +5.3553097252e+02 +1.7123564994e+01 -8.1266643773e+02 1.1500857853e+03 6.1252260000e+02 0.0000e+00 1.0000e+00
       21  1    1    2  502  501 -3.9744833010e+01 -1.3114730913e+00 +5.3987191084e+01 6.7052132806e+01 0.0000000000e+00 0.0000e+00 -1.0000e+00
<mgrwt>
<rscale>  1 0.80557791E+03</rscale>
<asrwt>0</asrwt>
<pdfrwt beam="1">  1        3 0.91406284E-01 0.80557791E+03</pdfrwt>
<pdfrwt beam="2">  1       -3 0.21746418E+00 0.80557791E+03</pdfrwt>
<totfact> 0.31866999E-01</totfact>
</mgrwt>
</event>
<event>
 5      1 +1.8937969e-08 7.95094700e+02 7.81665300e-03 9.56714500e-02
        3 -1    0    0  502    0 +0.0000000000e+00 +0.0000000000e+00 +5.4875607134e+02 5.4875607957e+02 9.5000000000e-02 0.0000e+00 1.0000e+00
       -3 -1    0    0    0  501 -0.0000000000e+00 -0.0000000000e+00 -1.8799367500e+03 1.8799367524e+03 9.5000000000e-02 0.0000e+00 1.0000e+00
  1000022  1    1    2    0    0 +1.3870764840e+02 -6.6685326487e+02 -9.8558816683e+02 1.3455486088e+03 6.1252260000e+02 0.0000e+00 -1.0000e+00
  1000022  1    1    2    0    0 -1.5587416930e+02 +4.0979279039e+02 -1.7250513389e+02 7.7276700527e+02 6.1252260000e+02 0.0000e+00 -1.0000e+00
       21  1    1    2  502  501 +1.7166520897e+01 +2.5706047448e+02 -1.7308737795e+02 3.1037721789e+02 0.0000000000e+00 0.0000e+00 1.0000e+00
<mgrwt>
<rscale>  1 0.79509468E+03</rscale>
<asrwt>0</asrwt>
<pdfrwt beam="1">  1        3 0.84424013E-01 0.79509468E+03</pdfrwt>
<pdfrwt beam="2">  1       -3 0.28922104E+00 0.79509468E+03</pdfrwt>
<totfact> 0.14779874E-01</totfact>
</mgrwt>
</event>
<event>
 5      1 +1.8937969e-08 8.70196900e+02 7.81665300e-03 9.46362300e-02
       -3 -1    0    0    0  501 -0.0000000000e+00 +0.0000000000e+00 +3.1633523623e+02 3.1633525050e+02 9.5000000000e-02 0.0000e+00 -1.0000e+00
        3 -1    0    0  502    0 +0.0000000000e+00 -0.0000000000e+00 -2.7315177288e+03 2.7315177304e+03 9.5000000000e-02 0.0000e+00 -1.0000e+00
  1000022  1    1    2    0    0 +5.8259755197e+02 -2.4929208452e+02 -1.0828087245e+03 1.3961465254e+03 6.1252260000e+02 0.0000e+00 1.0000e+00
  1000022  1    1    2    0    0 -5.5872122838e+02 +2.3389146132e+02 -1.3614276852e+03 1.6110691805e+03 6.1252260000e+02 0.0000e+00 1.0000e+00
       21  1    1    2  502  501 -2.3876323590e+01 +1.5400623201e+01 +2.9053917160e+01 4.0637275074e+01 0.0000000000e+00 0.0000e+00 -1.0000e+00
<mgrwt>
<rscale>  1 0.87019693E+03</rscale>
<asrwt>0</asrwt>
<pdfrwt beam="2">  1        3 0.42023348E+00 0.87019693E+03</pdfrwt>
<pdfrwt beam="1">  1       -3 0.48666962E-01 0.87019693E+03</pdfrwt>
<totfact> 0.97130448E-02</totfact>
</mgrwt>
</event>
<event>
 5      1 +1.8937969e-08 9.53536600e+02 7.81665300e-03 9.36102600e-02
       -2 -1    0    0    0  501 -0.0000000000e+00 +0.0000000000e+00 +7.7960258572e+02 7.7960258572e+02 2.5000000000e-03 0.0000e+00 1.0000e+00
        2 -1    0    0  502    0 +0.0000000000e+00 -0.0000000000e+00 -1.6484437205e+03 1.6484437205e+03 2.5000000000e-03 0.0000e+00 -1.0000e+00
  1000022  1    1    2    0    0 -8.1973530190e+01 -6.1702048695e+02 -2.7003469484e+02 9.1407691848e+02 6.1252260000e+02 0.0000e+00 1.0000e+00
  1000022  1    1    2    0    0 +5.6649064985e+01 +8.1697535672e+02 -7.4476702326e+02 1.2651164786e+03 6.1252260000e+02 0.0000e+00 -1.0000e+00
       21  1    1    2  502  501 +2.5324465206e+01 -1.9995486977e+02 +1.4596058333e+02 2.4885290910e+02 0.0000000000e+00 0.0000e+00 1.0000e+00
<mgrwt>
<rscale>  1 0.95353657E+03</rscale>
<asrwt>0</asrwt>
<pdfrwt beam="2">  1        2 0.25360673E+00 0.95353657E+03</pdfrwt>
<pdfrwt beam="1">  1       -2 0.11993886E+00 0.95353657E+03</pdfrwt>
<totfact> 0.55737225E+00</totfact>
</mgrwt>
</event>
<event>
 5      1 +1.8937969e-08 8.69470000e+02 7.81665300e-03 9.46457100e-02
       21 -1    0    0  501  502 +0.0000000000e+00 +0.0000000000e+00 +4.7210152346e+02 4.7210152346e+02 0.0000000000e+00 0.0000e+00 -1.0000e+00
        3 -1    0    0  502    0 -0.0000000000e+00 -0.0000000000e+00 -2.6386266628e+03 2.6386266645e+03 9.5000000000e-02 0.0000e+00 -1.0000e+00
  1000022  1    1    2    0    0 +5.9799786572e+02 +1.9221021851e+02 -1.3449124221e+03 1.6057769379e+03 6.1252260000e+02 0.0000e+00 1.0000e+00
  1000022  1    1    2    0    0 -5.8951505392e+02 -1.3508239582e+02 -9.9882582075e+02 1.3185644498e+03 6.1252260000e+02 0.0000e+00 1.0000e+00
        3  1    1    2  501    0 -8.4828118011e+00 -5.7127822688e+01 +1.7721310357e+02 1.8638680030e+02 9.5000000000e-02 0.0000e+00 1.0000e+00
<mgrwt>
<rscale>  1 0.86946999E+03</rscale>
<asrwt>0</asrwt>
<pdfrwt beam="1">  1       21 0.72631004E-01 0.86946999E+03</pdfrwt>
<pdfrwt beam="2">  1        3 0.40594256E+00 0.86946999E+03</pdfrwt>
<totfact> 0.80546739E-01</totfact>
</mgrwt>
</event>
<event>
 5      1 +1.8937969e-08 7.77439100e+02 7.81665300e-03 9.59326000e-02
       -2 -1    0    0    0  501 -0.0000000000e+00 +0.0000000000e+00 +3.8020059048e+02 3.8020059049e+02 2.5000000000e-03 0.0000e+00 1.0000e+00
        2 -1    0    0  502    0 +0.0000000000e+00 -0.0000000000e+00 -1.8504519449e+03 1.8504519449e+03 2.5000000000e-03 0.0000e+00 -1.0000e+00
  1000022  1    1    2    0    0 -4.9941906508e+02 -4.7112093196e+01 -4.1980178573e+02 8.9613415664e+02 6.1252260000e+02 0.0000e+00 1.0000e+00
  1000022  1    1    2    0    0 +4.4135459270e+02 +1.1677122733e+01 -9.6112821760e+02 1.2222445000e+03 6.1252260000e+02 0.0000e+00 -1.0000e+00
       21  1    1    2  502  501 +5.8064472380e+01 +3.5434970463e+01 -8.9321351117e+01 1.1227387875e+02 0.0000000000e+00 0.0000e+00 1.0000e+00
<mgrwt>
<rscale>  1 0.77743909E+03</rscale>
<asrwt>0</asrwt>
<pdfrwt beam="2">  1        2 0.28468491E+00 0.77743909E+03</pdfrwt>
<pdfrwt beam="1">  1       -2 0.58492399E-01 0.77743909E+03</pdfrwt>
<totfact> 0.22702898E+01</totfact>
</mgrwt>
</event>
<event>
 5      1 +1.8937969e-08 7.63751800e+02 7.81665300e-03 9.61402000e-02
        3 -1    0    0  502    0 +0.0000000000e+00 +0.0000000000e+00 +1.8564823509e+03 1.8564823533e+03 9.5000000000e-02 0.0000e+00 -1.0000e+00
       -3 -1    0    0    0  501 -0.0000000000e+00 -0.0000000000e+00 -4.3798156806e+02 4.3798157837e+02 9.5000000000e-02 0.0000e+00 -1.0000e+00
  1000022  1    1    2    0    0 +3.7995341416e+02 +2.0486685869e+02 +1.1592236651e+03 1.3803327382e+03 6.1252260000e+02 0.0000e+00 1.0000e+00
  1000022  1    1    2    0    0 -3.7367788267e+02 -2.7942067029e+02 +1.5443561550e+02 7.8533137326e+02 6.1252260000e+02 0.0000e+00 1.0000e+00
       21  1    1    2  502  501 -6.2755314964e+00 +7.4553811597e+01 +1.0484150219e+02 1.2879982027e+02 0.0000000000e+00 0.0000e+00 1.0000e+00
<mgrwt>
<rscale>  1 0.76375177E+03</rscale>
<asrwt>0</asrwt>
<pdfrwt beam="1">  1        3 0.28561267E+00 0.76375177E+03</pdfrwt>
<pdfrwt beam="2">  1       -3 0.67381780E-01 0.76375177E+03</pdfrwt>
<totfact> 0.25970726E-01</totfact>
</mgrwt>
</event>
<event>
 5      1 +1.8937969e-08 7.61104300e+02 7.81665300e-03 9.61808900e-02
        2 -1    0    0  502    0 +0.0000000000e+00 +0.0000000000e+00 +3.3859339686e+03 3.3859339686e+03 2.5000000000e-03 0.0000e+00 -1.0000e+00
       -2 -1    0    0    0  501 -0.0000000000e+00 -0.0000000000e+00 -1.9502534069e+02 1.9502534070e+02 2.5000000000e-03 0.0000e+00 1.0000e+00
  1000022  1    1    2    0    0 -1.3421802856e+02 +4.3503337909e+02 +2.0055097949e+03 2.1458149950e+03 6.1252260000e+02 0.0000e+00 -1.0000e+00
  1000022  1    1    2    0    0 +1.5564125035e+02 -4.1869733391e+02 +1.1866902250e+03 1.4081723196e+03 6.1252260000e+02 0.0000e+00 1.0000e+00
       21  1    1    2  502  501 -2.1423221790e+01 -1.6336045176e+01 -1.2913918771e+00 2.6971994677e+01 0.0000000000e+00 0.0000e+00 -1.0000e+00
<mgrwt>
<rscale>  1 0.76110426E+03</rscale>
<asrwt>0</asrwt>
<pdfrwt beam="1">  1        2 0.52091285E+00 0.76110426E+03</pdfrwt>
<pdfrwt beam="2">  1       -2 0.30003902E-01 0.76110426E+03</pdfrwt>
<totfact> 0.10720104E+01</totfact>
</mgrwt>
</event>
<event>
 5      1 +1.8937969e-08 9.00197000e+02 7.81665300e-03 9.42533500e-02
        3 -1    0    0  502    0 +0.0000000000e+00 +0.0000000000e+00 +4.5992551526e+02 4.5992552508e+02 9.5000000000e-02 0.0000e+00 -1.0000e+00
       -3 -1    0    0    0  501 -0.0000000000e+00 -0.0000000000e+00 -1.9133266003e+03 1.9133266027e+03 9.5000000000e-02 0.0000e+00 -1.0000e+00
  1000022  1    1    2    0    0 -6.3434358734e+02 -3.2804985430e+01 -6.5792646379e+02 1.1006902930e+03 6.1252260000e+02 0.0000e+00 1.0000e+00
  1000022  1    1    2    0    0 +6.8195791255e+02 +7.1001570315e+01 -6.8564609130e+02 1.1469098986e+03 6.1252260000e+02 0.0000e+00 1.0000e+00
       21  1    1    2  502  501 -4.7614325205e+01 -3.8196584885e+01 -1.0982852995e+02 1.2565193613e+02 0.0000000000e+00 0.0000e+00 1.0000e+00
<mgrwt>
<rscale>  1 0.90019701E+03</rscale>
<asrwt>0</asrwt>
<pdfrwt beam="1">  1        3 0.70757774E-01 0.90019701E+03</pdfrwt>
<pdfrwt beam="2">  1       -3 0.29435793E+00 0.90019701E+03</pdfrwt>
<totfact> 0.20314331E-01</totfact>
</mgrwt>
</event>
<event>
 5      1 +1.8937969e-08 8.98946000e+02 7.81665300e-03 9.42690000e-02
       -3 -1    0    0    0  501 -0.0000000000e+00 +0.0000000000e+00 +7.7396148850e+02 7.7396149433e+02 9.5000000000e-02 0.0000e+00 1.0000e+00
        3 -1    0    0  502    0 +0.0000000000e+00 -0.0000000000e+00 -1.1832751085e+03 1.1832751123e+03 9.5000000000e-02 0.0000e+00 1.0000e+00
  1000022  1    1    2    0    0 +1.6677877858e+02 -5.9717694634e+02 -2.5036907180e+02 9.0680983335e+02 6.1252260000e+02 0.0000e+00 -1.0000e+00
  1000022  1    1    2    0    0 -2.2956561004e+02 +6.5191901528e+02 -6.6379502453e+01 9.2589899322e+02 6.1252260000e+02 0.0000e+00 -1.0000e+00
       21  1    1    2  502  501 +6.2786831465e+01 -5.4742068939e+01 -9.2565045746e+01 1.2452778008e+02 0.0000000000e+00 0.0000e+00 1.0000e+00
<mgrwt>
<rscale>  1 0.89894605E+03</rscale>
<asrwt>0</asrwt>
<pdfrwt beam="2">  1        3 0.18204232E+00 0.89894605E+03</pdfrwt>
<pdfrwt beam="1">  1       -3 0.11907100E+00 0.89894605E+03</pdfrwt>
<totfact> 0.28428250E-01</totfact>
</mgrwt>
</event>
<event>
 5      1 +1.8937969e-08 7.23448700e+02 7.81665300e-03 9.67795100e-02
        2 -1    0    0  502    0 +0.0000000000e+00 +0.0000000000e+00 +1.9845901849e+03 1.9845901849e+03 2.5000000000e-03 0.0000e+00 1.0000e+00
       -2 -1    0    0    0  501 -0.0000000000e+00 -0.0000000000e+00 -3.3948973035e+02 3.3948973036e+02 2.5000000000e-03 0.0000e+00 -1.0000e+00
  1000022  1    1    2    0    0 +3.1804615573e+02 -1.5332102361e+02 +9.7879778811e+02 1.2074310494e+03 6.1252260000e+02 0.0000e+00 -1.0000e+00
  1000022  1    1    2    0    0 -3.6928268771e+02 +1.6047455173e+02 +3.7989497058e+02 8.2560638889e+02 6.1252260000e+02 0.0000e+00 1.0000e+00
       21  1    1    2  502  501 +5.1236531983e+01 -7.1535281236e+00 +2.8640769586e+02 2.9104247701e+02 0.0000000000e+00 0.0000e+00 1.0000e+00
<mgrwt>
<rscale>  1 0.72344869E+03</rscale>
<asrwt>0</asrwt>
<pdfrwt beam="1">  1        2 0.30532157E+00 0.72344869E+03</pdfrwt>
<pdfrwt beam="2">  1       -2 0.52229188E-01 0.72344869E+03</pdfrwt>
<totfact> 0.24446881E+01</totfact>
</mgrwt>
</event>
<event>
 5      1 +1.8937969e-08 6.35697400e+02 7.81665300e-03 9.83399300e-02
        1 -1    0    0  502    0 +0.0000000000e+00 +0.0000000000e+00 +9.5919090978e+02 9.5919090980e+02 5.0000000000e-03 0.0000e+00 -1.0000e+00
       -1 -1    0    0    0  501 -0.0000000000e+00 -0.0000000000e+00 -9.3183878492e+02 9.3183878493e+02 5.0000000000e-03 0.0000e+00 1.0000e+00
  1000022  1    1    2    0    0 +6.9423739325e+00 +3.0426299863e+02 +9.9754576972e+01 6.9120118636e+02 6.1252260000e+02 0.0000e+00 -1.0000e+00
  1000022  1    1    2    0    0 +3.6787011061e+01 -1.1370852987e+02 -4.5354176831e+02 7.7147066377e+02 6.1252260000e+02 0.0000e+00 1.0000e+00
       21  1    1    2  502  501 -4.3729384994e+01 -1.9055446876e+02 +3.8113931620e+02 4.2835784460e+02 0.0000000000e+00 0.0000e+00 -1.0000e+00
<mgrwt>
<rscale>  1 0.63569738E+03</rscale>
<asrwt>0</asrwt>
<pdfrwt beam="1">  1        1 0.14756783E+00 0.63569738E+03</pdfrwt>
<pdfrwt beam="2">  1       -1 0.14335981E+00 0.63569738E+03</pdfrwt>
<totfact> 0.67622185E+00</totfact>
</mgrwt>
</event>
<event>
 5      1 +1.8937969e-08 7.25909200e+02 7.81665300e-03 9.67392200e-02
       21 -1    0    0  501  502 +0.0000000000e+00 +0.0000000000e+00 +3.4069130927e+02 3.4069130927e+02 0.0000000000e+00 0.0000e+00 1.0000e+00
        2 -1    0    0  502    0 -0.0000000000e+00 -0.0000000000e+00 -2.4494419391e+03 2.4494419391e+03 2.5000000000e-03 0.0000e+00 -1.0000e+00
  1000022  1    1    2    0    0 +2.1795931785e+02 +1.9851701174e+02 -6.0599691194e+02 9.1067637555e+02 6.1252260000e+02 0.0000e+00 -1.0000e+00
  1000022  1    1    2    0    0 -4.1848106319e+02 -1.7587181054e+02 -1.4942217524e+03 1.6774802159e+03 6.1252260000e+02 0.0000e+00 1.0000e+00
        2  1    1    2  501    0 +2.0052174534e+02 -2.2645201207e+01 -8.5319655056e+00 2.0197665690e+02 2.5000000000e-03 0.0000e+00 -1.0000e+00
<mgrwt>
<rscale>  1 0.72590919E+03</rscale>
<asrwt>0</asrwt>
<pdfrwt beam="1">  1       21 0.52414048E-01 0.72590919E+03</pdfrwt>
<pdfrwt beam="2">  1        2 0.37683722E+00 0.72590919E+03</pdfrwt>
<totfact> 0.15171736E+02</totfact>
</mgrwt>
</event>
<event>
 5      1 +1.8937969e-08 8.23732800e+02 7.81665300e-03 9.52628600e-02
        3 -1    0    0  502    0 +0.0000000000e+00 +0.0000000000e+00 +1.4262307480e+03 1.4262307511e+03 9.5000000000e-02 0.0000e+00 -1.0000e+00
       -3 -1    0    0    0  501 -0.0000000000e+00 -0.0000000000e+00 -5.7473700079e+02 5.7473700864e+02 9.5000000000e-02 0.0000e+00 -1.0000e+00
  1000022  1    1    2    0    0 -4.4574432645e+01 +5.6577732339e+02 +7.7079175434e+02 1.1363954962e+03 6.1252260000e+02 0.0000e+00 1.0000e+00
  1000022  1    1    2    0    0 +1.8762929899e+01 -5.1646090836e+02 +5.5111771479e+01 8.0330888223e+02 6.1252260000e+02 0.0000e+00 1.0000e+00
       21  1    1    2  502  501 +2.5811502746e+01 -4.9316415037e+01 +2.5590221376e+01 6.1263381364e+01 0.0000000000e+00 0.0000e+00 1.0000e+00
<mgrwt>
<rscale>  1 0.82373275E+03</rscale>
<asrwt>0</asrwt>
<pdfrwt beam="1">  1        3 0.21942011E+00 0.82373275E+03</pdfrwt>
<pdfrwt beam="2">  1       -3 0.88421079E-01 0.82373275E+03</pdfrwt>
<totfact> 0.33638345E-01</totfact>
</mgrwt>
</event>
<event>
 5      1 +1.8937969e-08 6.49073900e+02 7.81665300e-03 9.80851800e-02
        2 -1    0    0  502    0 +0.0000000000e+00 +0.0000000000e+00 +2.0508767638e+03 2.0508767638e+03 2.5000000000e-03 0.0000e+00 1.0000e+00
       -2 -1    0    0    0  501 -0.0000000000e+00 -0.0000000000e+00 -3.4980194477e+02 3.4980194478e+02 2.5000000000e-03 0.0000e+00 -1.0000e+00
  1000022  1    1    2    0    0 -5.5380533312e+01 -7.3497600259e+01 +1.1732663056e+03 1.3267278018e+03 6.1252260000e+02 0.0000e+00 1.0000e+00
  1000022  1    1    2    0    0 +1.1463285921e+02 +2.3109275160e+02 +1.8162535217e+02 6.8899655755e+02 6.1252260000e+02 0.0000e+00 -1.0000e+00
       21  1    1    2  502  501 -5.9252325896e+01 -1.5759515134e+02 +3.4618316122e+02 3.8495434919e+02 0.0000000000e+00 0.0000e+00 -1.0000e+00
<mgrwt>
<rscale>  1 0.64907392E+03</rscale>
<asrwt>0</asrwt>
<pdfrwt beam="1">  1        2 0.31551950E+00 0.64907392E+03</pdfrwt>
<pdfrwt beam="2">  1       -2 0.53815685E-01 0.64907392E+03</pdfrwt>
<totfact> 0.21392266E+01</totfact>
</mgrwt>
</event>
<event>
 5      1 +1.8937969e-08 7.61698900e+02 7.81665300e-03 9.61717300e-02
       21 -1    0    0  501  502 +0.0000000000e+00 +0.0000000000e+00 +2.5668977053e+03 2.5668977053e+03 0.0000000000e+00 0.0000e+00 1.0000e+00
       -3 -1    0    0    0  501 -0.0000000000e+00 -0.0000000000e+00 -4.9334893055e+02 4.9334893970e+02 9.5000000000e-02 0.0000e+00 1.0000e+00
  1000022  1    1    2    0    0 +3.8479925068e+02 -2.4649464250e+02 +1.3551724641e+01 7.6432823895e+02 6.1252260000e+02 0.0000e+00 -1.0000e+00
  1000022  1    1    2    0    0 -3.6321914842e+02 +2.4809461080e+02 +1.0885883530e+03 1.3242687128e+03 6.1252260000e+02 0.0000e+00 -1.0000e+00
       -3  1    1    2    0  502 -2.1580102263e+01 -1.5999683041e+00 +9.7140869707e+02 9.7164969329e+02 9.5000000000e-02 0.0000e+00 -1.0000e+00
<mgrwt>
<rscale>  1 0.76169890E+03</rscale>
<asrwt>0</asrwt>
<pdfrwt beam="1">  1       21 0.39490733E+00 0.76169890E+03</pdfrwt>
<pdfrwt beam="2">  1       -3 0.75899837E-01 0.76169890E+03</pdfrwt>
<totfact> 0.52653413E-01</totfact>
</mgrwt>
</event>
<event>
 5      1 +1.8937969e-08 8.12580900e+02 7.81665300e-03 9.54198300e-02
       -2 -1    0    0    0  501 -0.0000000000e+00 +0.0000000000e+00 +2.2443904272e+02 2.2443904274e+02 2.5000000000e-03 0.0000e+00 1.0000e+00
        2 -1    0    0  502    0 +0.0000000000e+00 -0.0000000000e+00 -4.0394899775e+03 4.0394899775e+03 2.5000000000e-03 0.0000e+00 -1.0000e+00
  1000022  1    1    2    0    0 +2.2316300471e+02 -4.5666354725e+02 -9.0950565837e+02 1.2086057257e+03 6.1252260000e+02 0.0000e+00 1.0000e+00
  1000022  1    1    2    0    0 -2.2764638008e+02 +4.9375891616e+02 -2.9046869310e+03 3.0179481182e+03 6.1252260000e+02 0.0000e+00 -1.0000e+00
       21  1    1    2  502  501 +4.4833753682e+00 -3.7095368913e+01 -8.5834542467e-01 3.7375176339e+01 0.0000000000e+00 0.0000e+00 1.0000e+00
<mgrwt>
<rscale>  1 0.81258090E+03</rscale>
<asrwt>0</asrwt>
<pdfrwt beam="2">  1        2 0.62145994E+00 0.81258090E+03</pdfrwt>
<pdfrwt beam="1">  1       -2 0.34529087E-01 0.81258090E+03</pdfrwt>
<totfact> 0.27328081E+00</totfact>
</mgrwt>
</event>
<event>
 5      1 +1.8937969e-08 8.36375000e+02 7.81665300e-03 9.50880900e-02
        3 -1    0    0  502    0 +0.0000000000e+00 +0.0000000000e+00 +5.7620638787e+02 5.7620639570e+02 9.5000000000e-02 0.0000e+00 1.0000e+00
       -3 -1    0    0    0  501 -0.0000000000e+00 -0.0000000000e+00 -1.3650629420e+03 1.3650629453e+03 9.5000000000e-02 0.0000e+00 1.0000e+00
  1000022  1    1    2    0    0 +1.5696301882e+02 +5.5870260404e+02 -6.4119477392e+02 1.0597644373e+03 6.1252260000e+02 0.0000e+00 -1.0000e+00
  1000022  1    1    2    0    0 -1.6916156716e+02 -5.3754465630e+02 -1.1425648064e+02 8.4012402191e+02 6.1252260000e+02 0.0000e+00 -1.0000e+00
       21  1    1    2  502  501 +1.2198548342e+01 -2.1157947742e+01 -3.3405299519e+01 4.1380881700e+01 0.0000000000e+00 0.0000e+00 -1.0000e+00
<mgrwt>
<rscale>  1 0.83637500E+03</rscale>
<asrwt>0</asrwt>
<pdfrwt beam="1">  1        3 0.88647138E-01 0.83637500E+03</pdfrwt>
<pdfrwt beam="2">  1       -3 0.21000968E+00 0.83637500E+03</pdfrwt>
<totfact> 0.37891704E-01</totfact>
</mgrwt>
</event>
<event>
 5      1 +1.8937969e-08 6.30624600e+02 7.81665300e-03 9.84383100e-02
       -3 -1    0    0    0  501 -0.0000000000e+00 +0.0000000000e+00 +1.0169445387e+03 1.0169445431e+03 9.5000000000e-02 0.0000e+00 1.0000e+00
        3 -1    0    0  502    0 +0.0000000000e+00 -0.0000000000e+00 -9.6825947395e+02 9.6825947861e+02 9.5000000000e-02 0.0000e+00 1.0000e+00
  1000022  1    1    2    0    0 -1.6900477470e+02 -1.9076311327e+02 -5.0631213773e+02 8.3455922233e+02 6.1252260000e+02 0.0000e+00 -1.0000e+00
  1000022  1    1    2    0    0 +1.4486048022e+02 -1.1674523763e+01 +6.6771575412e+02 9.1768682950e+02 6.1252260000e+02 0.0000e+00 -1.0000e+00
       21  1    1    2  502  501 +2.4144294483e+01 +2.0243763703e+02 -1.1271855167e+02 2.3295796989e+02 0.0000000000e+00 0.0000e+00 -1.0000e+00
<mgrwt>
<rscale>  1 0.63062465E+03</rscale>
<asrwt>0</asrwt>
<pdfrwt beam="2">  1        3 0.14896300E+00 0.63062465E+03</pdfrwt>
<pdfrwt beam="1">  1       -3 0.15645301E+00 0.63062465E+03</pdfrwt>
<totfact> 0.24857501E-01</totfact>
</mgrwt>
</event>
<event>
 5      1 +1.8937969e-08 7.50361600e+02 7.81665300e-03 9.63478300e-02
        3 -1    0    0  502    0 +0.0000000000e+00 +0.0000000000e+00 +1.1987404760e+03 1.1987404798e+03 9.5000000000e-02 0.0000e+00 -1.0000e+00
       -3 -1    0    0    0  501 -0.0000000000e+00 -0.0000000000e+00 -1.0070386917e+03 1.0070386962e+03 9.5000000000e-02 0.0000e+00 -1.0000e+00
  1000022  1    1    2    0    0 -3.5629514859e+02 -1.0953334203e+02 +3.6026833314e+02 8.0244687880e+02 6.1252260000e+02 0.0000e+00 1.0000e+00
  1000022  1    1    2    0    0 +3.7162392926e+02 +2.6829132710e+02 -5.8132036746e+02 9.6083395346e+02 6.1252260000e+02 0.0000e+00 1.0000e+00
       21  1    1    2  502  501 -1.5328780665e+01 -1.5875798507e+02 +4.1275381868e+02 4.4249834370e+02 0.0000000000e+00 0.0000e+00 -1.0000e+00
<mgrwt>
<rscale>  1 0.75036159E+03</rscale>
<asrwt>0</asrwt>
<pdfrwt beam="1">  1        3 0.18442161E+00 0.75036159E+03</pdfrwt>
<pdfrwt beam="2">  1       -3 0.15492903E+00 0.75036159E+03</pdfrwt>
<totfact> 0.14238113E-01</totfact>
</mgrwt>
</event>
<event>
 5      1 +1.8937969e-08 8.47639600e+02 7.81665300e-03 9.49351000e-02
       -3 -1    0    0    0  501 -0.0000000000e+00 +0.0000000000e+00 +4.8123062958e+02 4.8123063896e+02 9.5000000000e-02 0.0000e+00 1.0000e+00
        3 -1    0    0  502    0 +0.0000000000e+00 -0.0000000000e+00 -3.1648384625e+03 3.1648384639e+03 9.5000000000e-02 0.0000e+00 1.0000e+00
  1000022  1    1    2    0    0 +5.9322064395e+02 +2.7658067467e+02 -1.9710516303e+03 2.1653258570e+03 6.1252260000e+02 0.0000e+00 -1.0000e+00
  1000022  1    1    2    0    0 -4.8926197942e+02 -7.2506120093e+01 -8.9203611181e+02 1.1897675329e+03 6.1252260000e+02 0.0000e+00 -1.0000e+00
       21  1    1    2  502  501 -1.0395866453e+02 -2.0407455457e+02 +1.7947990923e+02 2.9097571303e+02 0.0000000000e+00 0.0000e+00 -1.0000e+00
<mgrwt>
<rscale>  1 0.84763961E+03</rscale>
<asrwt>0</asrwt>
<pdfrwt beam="2">  1        3 0.48689821E+00 0.84763961E+03</pdfrwt>
<pdfrwt beam="1">  1       -3 0.74035484E-01 0.84763961E+03</pdfrwt>
<totfact> 0.18266222E-02</totfact>
</mgrwt>
</event>
<event>
 5      1 +1.8937969e-08 8.62853500e+02 7.81665300e-03 9.47324600e-02
        3 -1    0    0  502    0 +0.0000000000e+00 +0.0000000000e+00 +1.8863078962e+03 1.8863078986e+03 9.5000000000e-02 0.0000e+00 -1.0000e+00
       -3 -1    0    0    0  501 -0.0000000000e+00 -0.0000000000e+00 -4.2427918376e+02 4.2427919439e+02 9.5000000000e-02 0.0000e+00 -1.0000e+00
  1000022  1    1    2    0    0 -3.9320482002e+02 -4.5555094111e+02 +8.0338305045e+02 1.1759017611e+03 6.1252260000e+02 0.0000e+00 1.0000e+00
  1000022  1    1    2    0    0 +4.2812302793e+02 +4.3880193113e+02 +5.6814771113e+02 1.0362491105e+03 6.1252260000e+02 0.0000e+00 1.0000e+00
       21  1    1    2  502  501 -3.4918207905e+01 +1.6749009987e+01 +9.0497950909e+01 9.8436221472e+01 0.0000000000e+00 0.0000e+00 -1.0000e+00
<mgrwt>
<rscale>  1 0.86285354E+03</rscale>
<asrwt>0</asrwt>
<pdfrwt beam="1">  1        3 0.29020122E+00 0.86285354E+03</pdfrwt>
<pdfrwt beam="2">  1       -3 0.65273720E-01 0.86285354E+03</pdfrwt>
<totfact> 0.26019734E-01</totfact>
</mgrwt>
</event>
<event>
 5      1 +1.8937969e-08 8.62005100e+02 7.81665300e-03 9.47436400e-02
       -3 -1    0    0    0  501 -0.0000000000e+00 +0.0000000000e+00 +1.1664109958e+03 1.1664109997e+03 9.5000000000e-02 0.0000e+00 -1.0000e+00
        3 -1    0    0  502    0 +0.0000000000e+00 -0.0000000000e+00 -1.2828445785e+03 1.2828445821e+03 9.5000000000e-02 0.0000e+00 -1.0000e+00
  1000022  1    1    2    0    0 +4.8199519522e+02 +3.8345090880e+02 +4.2251989852e+02 9.6595081025e+02 6.1252260000e+02 0.0000e+00 -1.0000e+00
  1000022  1    1    2    0    0 -4.6680153104e+02 -3.6605792504e+02 +8.6823034666e+01 8.5710223937e+02 6.1252260000e+02 0.0000e+00 1.0000e+00
       21  1    1    2  502  501 -1.5193664176e+01 -1.7392983758e+01 -6.2577651593e+02 6.2620253210e+02 0.0000000000e+00 0.0000e+00 -1.0000e+00
<mgrwt>
<rscale>  1 0.86200508E+03</rscale>
<asrwt>0</asrwt>
<pdfrwt beam="2">  1        3 0.19736070E+00 0.86200508E+03</pdfrwt>
<pdfrwt beam="1">  1       -3 0.17944785E+00 0.86200508E+03</pdfrwt>
<totfact> 0.78144959E-02</totfact>
</mgrwt>
</event>
<event>
 5      1 +1.8937969e-08 8.15753400e+02 7.81665300e-03 9.53749100e-02
       -3 -1    0    0    0  501 -0.0000000000e+00 +0.0000000000e+00 +1.0891513856e+03 1.0891513897e+03 9.5000000000e-02 0.0000e+00 -1.0000e+00
       21 -1    0    0  501  502 +0.0000000000e+00 -0.0000000000e+00 -1.7883662295e+03 1.7883662295e+03 0.0000000000e+00 0.0000e+00 -1.0000e+00
  1000022  1    1    2    0    0 +3.3674856862e+02 -4.6523706775e+02 +5.0971628778e+02 9.8226257040e+02 6.1252260000e+02 0.0000e+00 1.0000e+00
  1000022  1    1    2    0    0 -4.6922500393e+02 +2.0897385850e+02 -1.7033249308e+02 8.1733669412e+02 6.1252260000e+02 0.0000e+00 1.0000e+00
       -3  1    1    2    0  502 +1.3247643531e+02 +2.5626320924e+02 -1.0385986386e+03 1.0779183547e+03 9.5000000000e-02 0.0000e+00 1.0000e+00
<mgrwt>
<rscale>  1 0.81575335E+03</rscale>
<asrwt>0</asrwt>
<pdfrwt beam="2">  1       21 0.27513326E+00 0.81575335E+03</pdfrwt>
<pdfrwt beam="1">  1       -3 0.16756175E+00 0.81575335E+03</pdfrwt>
<totfact> 0.42444253E-01</totfact>
</mgrwt>
</event>
<event>
 5      1 +1.8937969e-08 8.79707600e+02 7.81665300e-03 9.45131000e-02
        3 -1    0    0  502    0 +0.0000000000e+00 +0.0000000000e+00 +7.9715817543e+02 7.9715818110e+02 9.5000000000e-02 0.0000e+00 -1.0000e+00
       -3 -1    0    0    0  501 -0.0000000000e+00 -0.0000000000e+00 -1.1524235843e+03 1.1524235882e+03 9.5000000000e-02 0.0000e+00 -1.0000e+00
  1000022  1    1    2    0    0 -2.1983732414e+02 +6.0687447389e+02 -2.9415842459e+02 9.3719698592e+02 6.1252260000e+02 0.0000e+00 1.0000e+00
  1000022  1    1    2    0    0 +1.7980604554e+02 -5.8959046490e+02 -1.7852556920e+02 8.8713158251e+02 6.1252260000e+02 0.0000e+00 1.0000e+00
       21  1    1    2  502  501 +4.0031278593e+01 -1.7284008993e+01 +1.1741858496e+02 1.2525320086e+02 0.0000000000e+00 0.0000e+00 1.0000e+00
<mgrwt>
<rscale>  1 0.87970760E+03</rscale>
<asrwt>0</asrwt>
<pdfrwt beam="1">  1        3 0.12263972E+00 0.87970760E+03</pdfrwt>
<pdfrwt beam="2">  1       -3 0.17729594E+00 0.87970760E+03</pdfrwt>
<totfact> 0.28405981E-01</totfact>
</mgrwt>
</event>
<event>
 5      1 +1.8937969e-08 1.03985800e+03 7.81665300e-03 9.31905600e-02
       21 -1    0    0  501  502 +0.0000000000e+00 +0.0000000000e+00 +2.1915779479e+03 2.1915779479e+03 0.0000000000e+00 0.0000e+00 1.0000e+00
       -3 -1    0    0    0  501 -0.0000000000e+00 -0.0000000000e+00 -1.0657404160e+03 1.0657404202e+03 9.5000000000e-02 0.0000e+00 -1.0000e+00
  1000022  1    1    2    0    0 -3.7527500999e+02 +4.6544207584e+02 -1.4839784166e+02 8.6871946796e+02 6.1252260000e+02 0.0000e+00 1.0000e+00
  1000022  1    1    2    0    0 -3.9069016909e+02 -8.5370118651e+02 +4.8198546001e+02 1.2202206535e+03 6.1252260000e+02 0.0000e+00 1.0000e+00
       -3  1    1    2    0  502 +7.6596517908e+02 +3.8825911066e+02 +7.9224991357e+02 1.1683782466e+03 9.5000000000e-02 0.0000e+00 1.0000e+00
<mgrwt>
<rscale>  1 0.99047289E+03</rscale>
<asrwt>0</asrwt>
<pdfrwt beam="1">  1       21 0.33716584E+00 0.10398576E+04</pdfrwt>
<pdfrwt beam="2">  1       -3 0.16396007E+00 0.10398576E+04</pdfrwt>
<totfact> 0.17450337E-01</totfact>
</mgrwt>
</event>
<event>
 5      1 +1.8937969e-08 8.52398100e+02 7.81665300e-03 9.48712400e-02
        3 -1    0    0  502    0 +0.0000000000e+00 +0.0000000000e+00 +1.0580978518e+03 1.0580978560e+03 9.5000000000e-02 0.0000e+00 1.0000e+00
       -3 -1    0    0    0  501 -0.0000000000e+00 -0.0000000000e+00 -7.2861081470e+02 7.2861082089e+02 9.5000000000e-02 0.0000e+00 1.0000e+00
  1000022  1    1    2    0    0 +5.8888351765e+02 -4.8035348397e+01 +2.2149723310e+02 8.7939533308e+02 6.1252260000e+02 0.0000e+00 -1.0000e+00
  1000022  1    1    2    0    0 -5.9044890275e+02 +7.5595177237e+01 +1.3947878580e+02 8.6543792659e+02 6.1252260000e+02 0.0000e+00 -1.0000e+00
       21  1    1    2  502  501 +1.5653850995e+00 -2.7559828841e+01 -3.1488981814e+01 4.1875417274e+01 0.0000000000e+00 0.0000e+00 1.0000e+00
<mgrwt>
<rscale>  1 0.85239813E+03</rscale>
<asrwt>0</asrwt>
<pdfrwt beam="1">  1        3 0.16278429E+00 0.85239813E+03</pdfrwt>
<pdfrwt beam="2">  1       -3 0.11209397E+00 0.85239813E+03</pdfrwt>
<totfact> 0.44776117E-01</totfact>
</mgrwt>
</event>
<event>
 5      1 +1.8937969e-08 1.05837000e+03 7.81665300e-03 9.24674500e-02
       21 -1    0    0  501  502 +0.0000000000e+00 +0.0000000000e+00 +4.9402532518e+02 4.9402532518e+02 0.0000000000e+00 0.0000e+00 -1.0000e+00
        2 -1    0    0  502    0 -0.0000000000e+00 -0.0000000000e+00 -3.6798051918e+03 3.6798051918e+03 2.5000000000e-03 0.0000e+00 -1.0000e+00
  1000022  1    1    2    0    0 -8.5821492398e+02 -1.7501706276e+02 -1.6306064352e+03 1.9496730777e+03 6.1252260000e+02 0.0000e+00 -1.0000e+00
  1000022  1    1    2    0    0 +8.1843875848e+02 +2.3980025657e+02 -1.7355233067e+03 2.0284405952e+03 6.1252260000e+02 0.0000e+00 1.0000e+00
        2  1    1    2  501    0 +3.9776165497e+01 -6.4783193813e+01 +1.8034987528e+02 1.9571684409e+02 2.5000000000e-03 0.0000e+00 -1.0000e+00
<mgrwt>
<rscale>  1 0.10583696E+04</rscale>
<asrwt>0</asrwt>
<pdfrwt beam="1">  1       21 0.76003895E-01 0.10583696E+04</pdfrwt>
<pdfrwt beam="2">  1        2 0.56612388E+00 0.10583696E+04</pdfrwt>
<totfact> 0.10281443E+01</totfact>
</mgrwt>
</event>
<event>
 5      1 +1.8937969e-08 8.69997100e+02 7.81665300e-03 9.46388400e-02
        3 -1    0    0  502    0 +0.0000000000e+00 +0.0000000000e+00 +9.0262791336e+02 9.0262791836e+02 9.5000000000e-02 0.0000e+00 -1.0000e+00
       -3 -1    0    0    0  501 -0.0000000000e+00 -0.0000000000e+00 -1.2374782666e+03 1.2374782702e+03 9.5000000000e-02 0.0000e+00 -1.0000e+00
  1000022  1    1    2    0    0 +4.9705197555e+02 +3.5462974889e+02 -3.5741614352e+02 9.3581684124e+02 6.1252260000e+02 0.0000e+00 1.0000e+00
  1000022  1    1    2    0    0 -4.9418102402e+02 -3.8466860246e+02 -2.6495573647e+02 9.1518866690e+02 6.1252260000e+02 0.0000e+00 1.0000e+00
       21  1    1    2  502  501 -2.8709515204e+00 +3.0038853565e+01 +2.8752152676e+02 2.8910068045e+02 0.0000000000e+00 0.0000e+00 -1.0000e+00
<mgrwt>
<rscale>  1 0.86999709E+03</rscale>
<asrwt>0</asrwt>
<pdfrwt beam="1">  1        3 0.13886583E+00 0.86999709E+03</pdfrwt>
<pdfrwt beam="2">  1       -3 0.19038127E+00 0.86999709E+03</pdfrwt>
<totfact> 0.17058475E-01</totfact>
</mgrwt>
</event>
<event>
 5      1 +1.8937969e-08 8.55361200e+02 7.81665300e-03 9.48316900e-02
        3 -1    0    0  502    0 +0.0000000000e+00 +0.0000000000e+00 +6.5647128946e+02 6.5647129634e+02 9.5000000000e-02 0.0000e+00 -1.0000e+00
       -3 -1    0    0    0  501 -0.0000000000e+00 -0.0000000000e+00 -1.4373512530e+03 1.4373512561e+03 9.5000000000e-02 0.0000e+00 -1.0000e+00
  1000022  1    1    2    0    0 +2.1905368305e+02 +6.1826787179e+02 -6.1395421517e+02 1.0873653439e+03 6.1252260000e+02 0.0000e+00 1.0000e+00
  1000022  1    1    2    0    0 -1.1097734382e+02 -5.1263004367e+02 -2.3608885749e+02 8.4025437616e+02 6.1252260000e+02 0.0000e+00 1.0000e+00
       21  1    1    2  502  501 -1.0807633923e+02 -1.0563782812e+02 +6.9163109118e+01 1.6620283239e+02 0.0000000000e+00 0.0000e+00 -1.0000e+00
<mgrwt>
<rscale>  1 0.85536117E+03</rscale>
<asrwt>0</asrwt>
<pdfrwt beam="1">  1        3 0.10099558E+00 0.85536117E+03</pdfrwt>
<pdfrwt beam="2">  1       -3 0.22113096E+00 0.85536117E+03</pdfrwt>
<totfact> 0.23911281E-01</totfact>
</mgrwt>
</event>
<event>
 5      1 +1.8937969e-08 8.39544000e+02 7.81665300e-03 9.50447900e-02
        3 -1    0    0  502    0 +0.0000000000e+00 +0.0000000000e+00 +1.5719140377e+03 1.5719140406e+03 9.5000000000e-02 0.0000e+00 -1.0000e+00
       -3 -1    0    0    0  501 -0.0000000000e+00 -0.0000000000e+00 -1.1272699765e+03 1.1272699805e+03 9.5000000000e-02 0.0000e+00 -1.0000e+00
  1000022  1    1    2    0    0 -3.5125994861e+02 +4.5207282425e+02 +8.7697858424e+02 1.2132719244e+03 6.1252260000e+02 0.0000e+00 1.0000e+00
  1000022  1    1    2    0    0 +3.2491880783e+02 -4.7833454148e+02 +1.8913848456e+02 8.6332697578e+02 6.1252260000e+02 0.0000e+00 1.0000e+00
       21  1    1    2  502  501 +2.6341140772e+01 +2.6261717232e+01 -6.2147300762e+02 6.2258512084e+02 0.0000000000e+00 0.0000e+00 -1.0000e+00
<mgrwt>
<rscale>  1 0.83954405E+03</rscale>
<asrwt>0</asrwt>
<pdfrwt beam="1">  1        3 0.24183293E+00 0.83954405E+03</pdfrwt>
<pdfrwt beam="2">  1       -3 0.17342615E+00 0.83954405E+03</pdfrwt>
<totfact> 0.46450743E-02</totfact>
</mgrwt>
</event>
<event>
 5      1 +1.8937969e-08 7.16518100e+02 7.81665300e-03 9.68939400e-02
       -3 -1    0    0    0  501 -0.0000000000e+00 +0.0000000000e+00 +2.5508476993e+02 2.5508478762e+02 9.5000000000e-02 0.0000e+00 -1.0000e+00
        3 -1    0    0  502    0 +0.0000000000e+00 -0.0000000000e+00 -2.3836615315e+03 2.3836615334e+03 9.5000000000e-02 0.0000e+00 -1.0000e+00
  1000022  1    1    2    0    0 +3.9488004794e+02 +1.3387544358e+02 -1.0485686253e+03 1.2839520957e+03 6.1252260000e+02 0.0000e+00 1.0000e+00
  1000022  1    1    2    0    0 -2.9742785816e+02 -1.5832400699e+02 -8.2893838625e+02 1.0843673758e+03 6.1252260000e+02 0.0000e+00 1.0000e+00
       21  1    1    2  502  501 -9.7452189778e+01 +2.4448563413e+01 -2.5106975004e+02 2.7042684950e+02 0.0000000000e+00 0.0000e+00 1.0000e+00
<mgrwt>
<rscale>  1 0.71651811E+03</rscale>
<asrwt>0</asrwt>
<pdfrwt beam="2">  1        3 0.36671715E+00 0.71651811E+03</pdfrwt>
<pdfrwt beam="1">  1       -3 0.39243814E-01 0.71651811E+03</pdfrwt>
<totfact> 0.29211381E-01</totfact>
</mgrwt>
</event>
<event>
 5      1 +1.8937969e-08 6.39079900e+02 7.81665300e-03 9.82748900e-02
       21 -1    0    0  501  502 +0.0000000000e+00 +0.0000000000e+00 +2.1474937962e+03 2.1474937962e+03 0.0000000000e+00 0.0000e+00 1.0000e+00
        3 -1    0    0  502    0 -0.0000000000e+00 -0.0000000000e+00 -4.7261466306e+02 4.7261467261e+02 9.5000000000e-02 0.0000e+00 1.0000e+00
  1000022  1    1    2    0    0 +1.2642901775e+02 -3.5750395539e+01 +1.3319866423e+03 1.4719492987e+03 6.1252260000e+02 0.0000e+00 -1.0000e+00
  1000022  1    1    2    0    0 -1.8725828342e+02 -5.4860635300e+01 -1.3592187064e+02 6.5706471861e+02 6.1252260000e+02 0.0000e+00 -1.0000e+00
        3  1    1    2  501    0 +6.0829265667e+01 +9.0611030839e+01 +4.7881436153e+02 4.9109445151e+02 9.5000000000e-02 0.0000e+00 -1.0000e+00
<mgrwt>
<rscale>  1 0.63907987E+03</rscale>
<asrwt>0</asrwt>
<pdfrwt beam="1">  1       21 0.33038365E+00 0.63907987E+03</pdfrwt>
<pdfrwt beam="2">  1        3 0.72709950E-01 0.63907987E+03</pdfrwt>
<totfact> 0.15436032E+00</totfact>
</mgrwt>
</event>
<event>
 5      1 +1.8937969e-08 7.36450500e+02 7.81665300e-03 9.65685000e-02
        3 -1    0    0  502    0 +0.0000000000e+00 +0.0000000000e+00 +5.9405149486e+02 5.9405150246e+02 9.5000000000e-02 0.0000e+00 -1.0000e+00
       -3 -1    0    0    0  501 -0.0000000000e+00 -0.0000000000e+00 -1.2589135377e+03 1.2589135413e+03 9.5000000000e-02 0.0000e+00 -1.0000e+00
  1000022  1    1    2    0    0 -6.2493759329e+01 +4.0637464181e+02 +1.3867374238e+02 7.5063983494e+02 6.1252260000e+02 0.0000e+00 1.0000e+00
  1000022  1    1    2    0    0 +4.3190096562e+01 -4.0002708534e+02 -7.6916058686e+02 1.0623930522e+03 6.1252260000e+02 0.0000e+00 1.0000e+00
       21  1    1    2  502  501 +1.9303662767e+01 -6.3475564683e+00 -3.4375198330e+01 3.9932156585e+01 0.0000000000e+00 0.0000e+00 -1.0000e+00
<mgrwt>
<rscale>  1 0.73645052E+03</rscale>
<asrwt>0</asrwt>
<pdfrwt beam="1">  1        3 0.91392539E-01 0.73645052E+03</pdfrwt>
<pdfrwt beam="2">  1       -3 0.19367901E+00 0.73645052E+03</pdfrwt>
<totfact> 0.45047865E-01</totfact>
</mgrwt>
</event>
<event>
 5      1 +1.8937969e-08 7.33612500e+02 7.81665300e-03 9.66141600e-02
        3 -1    0    0  502    0 +0.0000000000e+00 +0.0000000000e+00 +9.9270258234e+02 9.9270258689e+02 9.5000000000e-02 0.0000e+00 -1.0000e+00
       -3 -1    0    0    0  501 -0.0000000000e+00 -0.0000000000e+00 -1.0500445219e+03 1.0500445262e+03 9.5000000000e-02 0.0000e+00 -1.0000e+00
  1000022  1    1    2    0    0 -3.7164899782e+02 -1.8513321043e+02 -6.2895038781e+02 9.7116415143e+02 6.1252260000e+02 0.0000e+00 1.0000e+00
  1000022  1    1    2    0    0 +3.7076411071e+02 +7.2957512378e+01 +3.0373851879e+02 7.8117209865e+02 6.1252260000e+02 0.0000e+00 1.0000e+00
       21  1    1    2  502  501 +8.8488710068e-01 +1.1217569805e+02 +2.6786992945e+02 2.9041086302e+02 0.0000000000e+00 0.0000e+00 -1.0000e+00
<mgrwt>
<rscale>  1 0.73361253E+03</rscale>
<asrwt>0</asrwt>
<pdfrwt beam="1">  1        3 0.15272347E+00 0.73361253E+03</pdfrwt>
<pdfrwt beam="2">  1       -3 0.16154531E+00 0.73361253E+03</pdfrwt>
<totfact> 0.21214861E-01</totfact>
</mgrwt>
</event>
<event>
 5      1 +1.8937969e-08 7.51947100e+02 7.81665300e-03 9.63230100e-02
        1 -1    0    0  502    0 +0.0000000000e+00 +0.0000000000e+00 +6.2240953402e+02 6.2240953404e+02 5.0000000000e-03 0.0000e+00 -1.0000e+00
       -1 -1    0    0    0  501 -0.0000000000e+00 -0.0000000000e+00 -2.2754221998e+03 2.2754221998e+03 5.0000000000e-03 0.0000e+00 -1.0000e+00
  1000022  1    1    2    0    0 +1.0065402784e+02 -3.0230297883e+02 -1.0325831747e+03 1.2421474439e+03 6.1252260000e+02 0.0000e+00 1.0000e+00
  1000022  1    1    2    0    0 -1.5223114322e+02 +8.0862115318e+02 -4.3065424138e+02 1.1125149444e+03 6.1252260000e+02 0.0000e+00 1.0000e+00
       21  1    1    2  502  501 +5.1577115381e+01 -5.0631817435e+02 -1.8977524971e+02 5.4316934551e+02 0.0000000000e+00 0.0000e+00 -1.0000e+00
<mgrwt>
<rscale>  1 0.75194711E+03</rscale>
<asrwt>0</asrwt>
<pdfrwt beam="1">  1        1 0.95755314E-01 0.75194711E+03</pdfrwt>
<pdfrwt beam="2">  1       -1 0.35006495E+00 0.75194711E+03</pdfrwt>
<totfact> 0.53737093E-01</totfact>
</mgrwt>
</event>
<event>
 5      1 +1.8937969e-08 7.57014100e+02 7.81665300e-03 9.62441000e-02
        3 -1    0    0  502    0 +0.0000000000e+00 +0.0000000000e+00 +2.5744573397e+03 2.5744573415e+03 9.5000000000e-02 0.0000e+00 1.0000e+00
       -3 -1    0    0    0  501 -0.0000000000e+00 -0.0000000000e+00 -3.5127410461e+02 3.5127411745e+02 9.5000000000e-02 0.0000e+00 1.0000e+00
  1000022  1    1    2    0    0 +4.0106668711e+02 +4.7334793241e+01 +3.6253253438e+02 8.1835740613e+02 6.1252260000e+02 0.0000e+00 -1.0000e+00
  1000022  1    1    2    0    0 -5.4880943000e+02 -1.0648514729e+02 +1.5246354219e+03 1.7355771323e+03 6.1252260000e+02 0.0000e+00 -1.0000e+00
       21  1    1    2  502  501 +1.4774274289e+02 +5.9150354046e+01 +3.3601527886e+02 3.7179692049e+02 0.0000000000e+00 0.0000e+00 1.0000e+00
<mgrwt>
<rscale>  1 0.75701408E+03</rscale>
<asrwt>0</asrwt>
<pdfrwt beam="1">  1        3 0.39607035E+00 0.75701408E+03</pdfrwt>
<pdfrwt beam="2">  1       -3 0.54042172E-01 0.75701408E+03</pdfrwt>
<totfact> 0.10606097E-01</totfact>
</mgrwt>
</event>
<event>
 5      1 +1.8937969e-08 6.89078600e+02 7.81665300e-03 9.73609400e-02
       -3 -1    0    0    0  501 -0.0000000000e+00 +0.0000000000e+00 +9.5775747091e+02 9.5775747562e+02 9.5000000000e-02 0.0000e+00 -1.0000e+00
        3 -1    0    0  502    0 +0.0000000000e+00 -0.0000000000e+00 -9.4282260126e+02 9.4282260605e+02 9.5000000000e-02 0.0000e+00 -1.0000e+00
  1000022  1    1    2    0    0 +2.6411771770e+02 +3.0872460086e+02 +4.5004339215e+02 8.6185383813e+02 6.1252260000e+02 0.0000e+00 1.0000e+00
  1000022  1    1    2    0    0 -1.9355788160e+02 -2.2045210832e+02 -5.5270553905e+02 8.7563184844e+02 6.1252260000e+02 0.0000e+00 1.0000e+00
       21  1    1    2  502  501 -7.0559836104e+01 -8.8272492535e+01 +1.1759701655e+02 1.6309439509e+02 0.0000000000e+00 0.0000e+00 -1.0000e+00
<mgrwt>
<rscale>  1 0.68907859E+03</rscale>
<asrwt>0</asrwt>
<pdfrwt beam="2">  1        3 0.14504963E+00 0.68907859E+03</pdfrwt>
<pdfrwt beam="1">  1       -3 0.14734730E+00 0.68907859E+03</pdfrwt>
<totfact> 0.30955086E-01</totfact>
</mgrwt>
</event>
<event>
 5      1 +1.8937969e-08 9.79984500e+02 7.81665300e-03 9.33077400e-02
       -2 -1    0    0    0  501 -0.0000000000e+00 +0.0000000000e+00 +1.5747632029e+03 1.5747632029e+03 2.5000000000e-03 0.0000e+00 1.0000e+00
        2 -1    0    0  502    0 +0.0000000000e+00 -0.0000000000e+00 -8.5252073633e+02 8.5252073633e+02 2.5000000000e-03 0.0000e+00 -1.0000e+00
  1000022  1    1    2    0    0 +7.6115440434e+02 -3.8203587967e+01 +4.8737552530e+02 1.0924899906e+03 6.1252260000e+02 0.0000e+00 1.0000e+00
  1000022  1    1    2    0    0 -7.5809465531e+02 +1.2509530564e+02 -1.0105563259e+02 9.8780186186e+02 6.1252260000e+02 0.0000e+00 -1.0000e+00
       21  1    1    2  502  501 -3.0597490339e+00 -8.6891717676e+01 +3.3592257389e+02 3.4699208682e+02 0.0000000000e+00 0.0000e+00 1.0000e+00
<mgrwt>
<rscale>  1 0.97998454E+03</rscale>
<asrwt>0</asrwt>
<pdfrwt beam="2">  1        2 0.13115704E+00 0.97998454E+03</pdfrwt>
<pdfrwt beam="1">  1       -2 0.24227126E+00 0.97998454E+03</pdfrwt>
<totfact> 0.22640234E+00</totfact>
</mgrwt>
</event>
<event>
 5      1 +1.8937969e-08 7.09620700e+02 7.81665300e-03 9.70092000e-02
       -3 -1    0    0    0  501 -0.0000000000e+00 +0.0000000000e+00 +9.9533989252e+02 9.9533989706e+02 9.5000000000e-02 0.0000e+00 1.0000e+00
        3 -1    0    0  502    0 +0.0000000000e+00 -0.0000000000e+00 -7.6868679497e+02 7.6868680084e+02 9.5000000000e-02 0.0000e+00 1.0000e+00
  1000022  1    1    2    0    0 +1.8888215662e+02 +4.3050813831e+02 +3.7402791541e+02 8.5795952309e+02 6.1252260000e+02 0.0000e+00 -1.0000e+00
  1000022  1    1    2    0    0 -1.5813570210e+02 -2.7120448165e+02 -2.2776896679e+02 7.2499752337e+02 6.1252260000e+02 0.0000e+00 -1.0000e+00
       21  1    1    2  502  501 -3.0746454521e+01 -1.5930365666e+02 +8.0394148929e+01 1.8106965144e+02 0.0000000000e+00 0.0000e+00 -1.0000e+00
<mgrwt>
<rscale>  1 0.70962066E+03</rscale>
<asrwt>0</asrwt>
<pdfrwt beam="2">  1        3 0.11825951E+00 0.70962066E+03</pdfrwt>
<pdfrwt beam="1">  1       -3 0.15312921E+00 0.70962066E+03</pdfrwt>
<totfact> 0.46568577E-01</totfact>
</mgrwt>
</event>
<event>
 5      1 +1.8937969e-08 6.70014500e+02 7.81665300e-03 9.76993200e-02
       -1 -1    0    0    0  501 -0.0000000000e+00 +0.0000000000e+00 +2.8653321336e+02 2.8653321341e+02 5.0000000000e-03 0.0000e+00 -1.0000e+00
        1 -1    0    0  502    0 +0.0000000000e+00 -0.0000000000e+00 -4.4779414706e+03 4.4779414706e+03 5.0000000000e-03 0.0000e+00 -1.0000e+00
  1000022  1    1    2    0    0 +2.5489268878e+01 +1.9899953097e+02 -3.1006094588e+03 3.1668933465e+03 6.1252260000e+02 0.0000e+00 1.0000e+00
  1000022  1    1    2    0    0 +3.0884255327e+02 -6.3672184388e+01 -3.4797381348e+02 7.7182095084e+02 6.1252260000e+02 0.0000e+00 1.0000e+00
       21  1    1    2  502  501 -3.3433182215e+02 -1.3532734658e+02 -7.4282498496e+02 8.2576038674e+02 0.0000000000e+00 0.0000e+00 -1.0000e+00
<mgrwt>
<rscale>  1 0.67001449E+03</rscale>
<asrwt>0</asrwt>
<pdfrwt beam="2">  1        1 0.68891402E+00 0.67001449E+03</pdfrwt>
<pdfrwt beam="1">  1       -1 0.44082036E-01 0.67001449E+03</pdfrwt>
<totfact> 0.20085059E-01</totfact>
</mgrwt>
</event>
<event>
 5      1 +1.8937969e-08 8.66806600e+02 7.81665300e-03 9.46805300e-02
        3 -1    0    0  502    0 +0.0000000000e+00 +0.0000000000e+00 +1.2077410591e+03 1.2077410628e+03 9.5000000000e-02 0.0000e+00 -1.0000e+00
       -3 -1    0    0    0  501 -0.0000000000e+00 -0.0000000000e+00 -6.8094634114e+02 6.8094634777e+02 9.5000000000e-02 0.0000e+00 -1.0000e+00
  1000022  1    1    2    0    0 +4.5579979415e+02 -3.7948437162e+02 +9.7262651028e+01 8.5814089720e+02 6.1252260000e+02 0.0000e+00 1.0000e+00
  1000022  1    1    2    0    0 -4.9440612707e+02 +3.8671054088e+02 +4.5056838503e+02 9.8599100707e+02 6.1252260000e+02 0.0000e+00 1.0000e+00
       21  1    1    2  502  501 +3.8606332925e+01 -7.2261692584e+00 -2.1036318109e+01 4.4555506323e+01 0.0000000000e+00 0.0000e+00 1.0000e+00
<mgrwt>
<rscale>  1 0.86680658E+03</rscale>
<asrwt>0</asrwt>
<pdfrwt beam="1">  1        3 0.18580631E+00 0.86680658E+03</pdfrwt>
<pdfrwt beam="2">  1       -3 0.10476098E+00 0.86680658E+03</pdfrwt>
<totfact> 0.36638611E-01</totfact>
</mgrwt>
</event>
<event>
 5      1 +1.8937969e-08 6.42646300e+02 7.81665300e-03 9.82067700e-02
        3 -1    0    0  502    0 +0.0000000000e+00 +0.0000000000e+00 +2.3619432237e+03 2.3619432256e+03 9.5000000000e-02 0.0000e+00 1.0000e+00
       -3 -1    0    0    0  501 -0.0000000000e+00 -0.0000000000e+00 -3.4708797417e+02 3.4708798717e+02 9.5000000000e-02 0.0000e+00 1.0000e+00
  1000022  1    1    2    0    0 +1.1354426781e+00 +1.9643769606e+02 +6.2217524246e+01 6.4625383055e+02 6.1252260000e+02 0.0000e+00 -1.0000e+00
  1000022  1    1    2    0    0 -1.7230957536e+01 -1.8362875665e+02 +1.8337300149e+03 1.9421035320e+03 6.1252260000e+02 0.0000e+00 -1.0000e+00
       21  1    1    2  502  501 +1.6095514858e+01 -1.2808939413e+01 +1.1890771042e+02 1.2067385022e+02 0.0000000000e+00 0.0000e+00 -1.0000e+00
<mgrwt>
<rscale>  1 0.64264631E+03</rscale>
<asrwt>0</asrwt>
<pdfrwt beam="1">  1        3 0.36337587E+00 0.64264631E+03</pdfrwt>
<pdfrwt beam="2">  1       -3 0.53398152E-01 0.64264631E+03</pdfrwt>
<totfact> 0.16438661E-01</totfact>
</mgrwt>
</event>
<event>
 5      1 +1.8937969e-08 7.78641400e+02 7.81665300e-03 9.59145800e-02
        3 -1    0    0  502    0 +0.0000000000e+00 +0.0000000000e+00 +2.4833205738e+03 2.4833205756e+03 9.5000000000e-02 0.0000e+00 1.0000e+00
       -3 -1    0    0    0  501 -0.0000000000e+00 -0.0000000000e+00 -3.5920975830e+02 3.5920977087e+02 9.5000000000e-02 0.0000e+00 1.0000e+00
  1000022  1    1    2    0    0 -4.7567905054e+02 -8.6534162108e+01 +1.7553216368e+03 1.9209624422e+03 6.1252260000e+02 0.0000e+00 -1.0000e+00
  1000022  1    1    2    0    0 +4.6162226866e+02 +1.0436346202e+02 +4.0893855740e+02 8.7544361918e+02 6.1252260000e+02 0.0000e+00 -1.0000e+00
       21  1    1    2  502  501 +1.4056781874e+01 -1.7829299915e+01 -4.0149378767e+01 4.6124285008e+01 0.0000000000e+00 0.0000e+00 1.0000e+00
<mgrwt>
<rscale>  1 0.77864142E+03</rscale>
<asrwt>0</asrwt>
<pdfrwt beam="1">  1        3 0.38204931E+00 0.77864142E+03</pdfrwt>
<pdfrwt beam="2">  1       -3 0.55263042E-01 0.77864142E+03</pdfrwt>
<totfact> 0.11971225E-01</totfact>
</mgrwt>
</event>
<event>
 5      1 +1.8937969e-08 7.87910200e+02 7.81665300e-03 9.57768300e-02
        2 -1    0    0  502    0 -0.0000000000e+00 +0.0000000000e+00 +2.2923662900e+03 2.2923662900e+03 2.5000000000e-03 0.0000e+00 -1.0000e+00
       21 -1    0    0  501  502 +0.0000000000e+00 -0.0000000000e+00 -4.2513871408e+02 4.2513871408e+02 0.0000000000e+00 0.0000e+00 1.0000e+00
  1000022  1    1    2    0    0 +4.1716515473e+02 +2.6379308569e+02 +1.1152606292e+03 1.3647724224e+03 6.1252260000e+02 0.0000e+00 -1.0000e+00
  1000022  1    1    2    0    0 -3.6603403850e+02 -3.5163633794e+02 +2.4019820508e+02 8.3096819718e+02 6.1252260000e+02 0.0000e+00 1.0000e+00
        2  1    1    2  501    0 -5.1131116231e+01 +8.7843252247e+01 +5.1176874165e+02 5.2176438451e+02 2.5000000000e-03 0.0000e+00 -1.0000e+00
<mgrwt>
<rscale>  1 0.78791021E+03</rscale>
<asrwt>0</asrwt>
<pdfrwt beam="2">  1       21 0.65405957E-01 0.78791021E+03</pdfrwt>
<pdfrwt beam="1">  1        2 0.35267173E+00 0.78791021E+03</pdfrwt>
<totfact> 0.11233514E+02</totfact>
</mgrwt>
</event>
<event>
 5      1 +1.8937969e-08 8.67065300e+02 7.81665300e-03 9.46771400e-02
       21 -1    0    0  501  502 +0.0000000000e+00 +0.0000000000e+00 +5.6782408686e+02 5.6782408686e+02 0.0000000000e+00 0.0000e+00 -1.0000e+00
       -3 -1    0    0    0  501 -0.0000000000e+00 -0.0000000000e+00 -2.1709499163e+03 2.1709499184e+03 9.5000000000e-02 0.0000e+00 -1.0000e+00
  1000022  1    1    2    0    0 -1.8034580865e+02 -4.9670605327e+02 -6.3791575133e+02 1.0302242258e+03 6.1252260000e+02 0.0000e+00 1.0000e+00
  1000022  1    1    2    0    0 +2.2701329919e+02 +6.4490573500e+02 -1.1472053051e+03 1.4692523244e+03 6.1252260000e+02 0.0000e+00 1.0000e+00
       -3  1    1    2    0  502 -4.6667490543e+01 -1.4819968173e+02 +1.8199522702e+02 2.3929745511e+02 9.5000000000e-02 0.0000e+00 1.0000e+00
<mgrwt>
<rscale>  1 0.86706530E+03</rscale>
<asrwt>0</asrwt>
<pdfrwt beam="1">  1       21 0.87357552E-01 0.86706530E+03</pdfrwt>
<pdfrwt beam="2">  1       -3 0.33399229E+00 0.86706530E+03</pdfrwt>
<totfact> 0.12327384E+00</totfact>
</mgrwt>
</event>
<event>
 5      1 +1.8937969e-08 6.13518700e+02 7.81665300e-03 9.87774900e-02
        2 -1    0    0  502    0 -0.0000000000e+00 +0.0000000000e+00 +9.5167112183e+02 9.5167112183e+02 2.5000000000e-03 0.0000e+00 1.0000e+00
       21 -1    0    0  501  502 +0.0000000000e+00 -0.0000000000e+00 -5.7253108867e+02 5.7253108867e+02 0.0000000000e+00 0.0000e+00 -1.0000e+00
  1000022  1    1    2    0    0 +2.2222452137e+01 +3.9088072602e+01 -1.3772483640e+02 6.2942337172e+02 6.1252260000e+02 0.0000e+00 -1.0000e+00
  1000022  1    1    2    0    0 +2.4175740986e+01 -3.0574445318e+01 +5.6000950162e+02 8.3085127464e+02 6.1252260000e+02 0.0000e+00 1.0000e+00
        2  1    1    2  501    0 -4.6398193123e+01 -8.5136272839e+00 -4.3144632068e+01 6.3927564142e+01 2.5000000000e-03 0.0000e+00 1.0000e+00
<mgrwt>
<rscale>  1 0.61351868E+03</rscale>
<asrwt>0</asrwt>
<pdfrwt beam="2">  1       21 0.88081706E-01 0.61351868E+03</pdfrwt>
<pdfrwt beam="1">  1        2 0.14641094E+00 0.61351868E+03</pdfrwt>
<totfact> 0.33619989E+02</totfact>
</mgrwt>
</event>
<event>
 5      1 +1.8937969e-08 6.48006300e+02 7.81665300e-03 9.81052700e-02
       -2 -1    0    0    0  501 -0.0000000000e+00 +0.0000000000e+00 +6.5435892537e+02 6.5435892537e+02 2.5000000000e-03 0.0000e+00 1.0000e+00
        2 -1    0    0  502    0 +0.0000000000e+00 -0.0000000000e+00 -1.3993597398e+03 1.3993597398e+03 2.5000000000e-03 0.0000e+00 -1.0000e+00
  1000022  1    1    2    0    0 +1.4925666066e+02 -9.4963792227e-01 -9.1846518081e+02 1.1140200521e+03 6.1252260000e+02 0.0000e+00 -1.0000e+00
  1000022  1    1    2    0    0 -2.2155945019e+02 -3.0248171830e+01 +3.5455743180e+02 7.4222533629e+02 6.1252260000e+02 0.0000e+00 1.0000e+00
       21  1    1    2  502  501 +7.2302789533e+01 +3.1197809752e+01 -1.8109306539e+02 1.9747327677e+02 0.0000000000e+00 0.0000e+00 -1.0000e+00
<mgrwt>
<rscale>  1 0.64800632E+03</rscale>
<asrwt>0</asrwt>
<pdfrwt beam="2">  1        2 0.21528611E+00 0.64800632E+03</pdfrwt>
<pdfrwt beam="1">  1       -2 0.10067060E+00 0.64800632E+03</pdfrwt>
<totfact> 0.12213544E+01</totfact>
</mgrwt>
</event>
<event>
 5      1 +1.8937969e-08 8.72639800e+02 7.81665300e-03 9.46044400e-02
        3 -1    0    0  502    0 +0.0000000000e+00 +0.0000000000e+00 +2.3664179458e+02 2.3664181365e+02 9.5000000000e-02 0.0000e+00 -1.0000e+00
       -3 -1    0    0    0  501 -0.0000000000e+00 -0.0000000000e+00 -3.4542965093e+03 3.4542965106e+03 9.5000000000e-02 0.0000e+00 -1.0000e+00
  1000022  1    1    2    0    0 +3.2469930189e+02 +5.4925902372e+02 -1.4742001080e+03 1.7191756762e+03 6.1252260000e+02 0.0000e+00 1.0000e+00
  1000022  1    1    2    0    0 -3.3071869784e+02 -5.0628265348e+02 -1.5447089002e+03 1.7683343869e+03 6.1252260000e+02 0.0000e+00 1.0000e+00
       21  1    1    2  502  501 +6.0193959503e+00 -4.2976370234e+01 -1.9874570659e+02 2.0342826110e+02 0.0000000000e+00 0.0000e+00 1.0000e+00
<mgrwt>
<rscale>  1 0.87263980E+03</rscale>
<asrwt>0</asrwt>
<pdfrwt beam="1">  1        3 0.36406434E-01 0.87263980E+03</pdfrwt>
<pdfrwt beam="2">  1       -3 0.53143020E+00 0.87263980E+03</pdfrwt>
<totfact> 0.41975395E-02</totfact>
</mgrwt>
</event>
<event>
 5      1 +1.8937969e-08 7.47729600e+02 7.81665300e-03 9.63891900e-02
       -3 -1    0    0    0  501 -0.0000000000e+00 +0.0000000000e+00 +3.2950412746e+03 3.2950412760e+03 9.5000000000e-02 0.0000e+00 1.0000e+00
        3 -1    0    0  502    0 +0.0000000000e+00 -0.0000000000e+00 -2.3735654659e+02 2.3735656560e+02 9.5000000000e-02 0.0000e+00 1.0000e+00
  1000022  1    1    2    0    0 +8.9462382465e+01 +4.1512037435e+02 +2.3945876036e+03 2.5078999521e+03 6.1252260000e+02 0.0000e+00 -1.0000e+00
  1000022  1    1    2    0    0 -1.1072538300e+02 -4.2789325420e+02 +6.4964361856e+02 9.9627983723e+02 6.1252260000e+02 0.0000e+00 -1.0000e+00
       21  1    1    2  502  501 +2.1263000536e+01 +1.2772879851e+01 +1.3453505893e+01 2.8218052241e+01 0.0000000000e+00 0.0000e+00 -1.0000e+00
<mgrwt>
<rscale>  1 0.74772957E+03</rscale>
<asrwt>0</asrwt>
<pdfrwt beam="2">  1        3 0.36516396E-01 0.74772957E+03</pdfrwt>
<pdfrwt beam="1">  1       -3 0.50692939E+00 0.74772957E+03</pdfrwt>
<totfact> 0.56947717E-02</totfact>
</mgrwt>
</event>
<event>
 5      1 +1.8937969e-08 1.22155000e+03 7.81665300e-03 9.09420100e-02
        2 -1    0    0  502    0 +0.0000000000e+00 +0.0000000000e+00 +2.2814439188e+03 2.2814439188e+03 2.5000000000e-03 0.0000e+00 1.0000e+00
       -2 -1    0    0    0  501 -0.0000000000e+00 -0.0000000000e+00 -8.3780488572e+02 8.3780488573e+02 2.5000000000e-03 0.0000e+00 -1.0000e+00
  1000022  1    1    2    0    0 +8.3155568228e+02 +6.4300214772e+02 +2.5044771898e+02 1.2421129619e+03 6.1252260000e+02 0.0000e+00 1.0000e+00
  1000022  1    1    2    0    0 -8.1583323167e+02 -6.8599715425e+02 +7.6812697451e+02 1.4496133767e+03 6.1252260000e+02 0.0000e+00 -1.0000e+00
       21  1    1    2  502  501 -1.5722450612e+01 +4.2995006533e+01 +4.2506433961e+02 4.2752246590e+02 0.0000000000e+00 0.0000e+00 1.0000e+00
<mgrwt>
<rscale>  1 0.12215496E+04</rscale>
<asrwt>0</asrwt>
<pdfrwt beam="1">  1        2 0.35099137E+00 0.12215496E+04</pdfrwt>
<pdfrwt beam="2">  1       -2 0.12889306E+00 0.12215496E+04</pdfrwt>
<totfact> 0.20099003E+00</totfact>
</mgrwt>
</event>
<event>
 5      1 +1.8937969e-08 6.14690500e+02 7.81665300e-03 9.87538800e-02
        4 -1    0    0  502    0 +0.0000000000e+00 +0.0000000000e+00 +4.5798619480e+02 4.5798795566e+02 1.2700000000e+00 0.0000e+00 -1.0000e+00
       -4 -1    0    0    0  501 -0.0000000000e+00 -0.0000000000e+00 -1.2854657269e+03 1.2854663542e+03 1.2700000000e+00 0.0000e+00 1.0000e+00
  1000022  1    1    2    0    0 +2.3199695736e+01 -8.1209406394e+01 -7.8330597044e+02 9.9794056557e+02 6.1252260000e+02 0.0000e+00 1.0000e+00
  1000022  1    1    2    0    0 -1.8802524985e+01 -4.7916886591e+01 -2.8190097271e+01 6.1532770136e+02 6.1252260000e+02 0.0000e+00 -1.0000e+00
       21  1    1    2  502  501 -4.3971707512e+00 +1.2912629299e+02 -1.5983464372e+01 1.3018604297e+02 0.0000000000e+00 0.0000e+00 -1.0000e+00
<mgrwt>
<rscale>  1 0.61469052E+03</rscale>
<asrwt>0</asrwt>
<pdfrwt beam="1">  1        4 0.70459599E-01 0.61469052E+03</pdfrwt>
<pdfrwt beam="2">  1       -4 0.19776414E+00 0.61469052E+03</pdfrwt>
<totfact> 0.49635859E-01</totfact>
</mgrwt>
</event>
<event>
 5      1 +1.8937969e-08 8.65687600e+02 7.81665300e-03 9.46952000e-02
        3 -1    0    0  502    0 +0.0000000000e+00 +0.0000000000e+00 +4.1355202155e+02 4.1355203246e+02 9.5000000000e-02 0.0000e+00 -1.0000e+00
       -3 -1    0    0    0  501 -0.0000000000e+00 -0.0000000000e+00 -2.1356891769e+03 2.1356891790e+03 9.5000000000e-02 0.0000e+00 -1.0000e+00
  1000022  1    1    2    0    0 -8.7072644976e+01 +6.0106013119e+02 -4.5374560092e+02 9.7464041198e+02 6.1252260000e+02 0.0000e+00 1.0000e+00
  1000022  1    1    2    0    0 +5.8472727504e+01 -6.1719825843e+02 -1.1018491857e+03 1.4048517052e+03 6.1252260000e+02 0.0000e+00 1.0000e+00
       21  1    1    2  502  501 +2.8599917472e+01 +1.6138127237e+01 -1.6654236874e+02 1.6974909430e+02 0.0000000000e+00 0.0000e+00 -1.0000e+00
<mgrwt>
<rscale>  1 0.86568760E+03</rscale>
<asrwt>0</asrwt>
<pdfrwt beam="1">  1        3 0.63623390E-01 0.86568760E+03</pdfrwt>
<pdfrwt beam="2">  1       -3 0.32856756E+00 0.86568760E+03</pdfrwt>
<totfact> 0.16605404E-01</totfact>
</mgrwt>
</event>
<event>
 5      1 +1.8937969e-08 7.27808700e+02 7.81665300e-03 9.67082300e-02
       -2 -1    0    0    0  501 -0.0000000000e+00 +0.0000000000e+00 +3.0331436903e+02 3.0331436904e+02 2.5000000000e-03 0.0000e+00 -1.0000e+00
        2 -1    0    0  502    0 +0.0000000000e+00 -0.0000000000e+00 -3.1003649406e+03 3.1003649406e+03 2.5000000000e-03 0.0000e+00 1.0000e+00
  1000022  1    1    2    0    0 +3.2960384575e+02 -1.3855198361e+02 -5.8788403679e+02 9.2120948949e+02 6.1252260000e+02 0.0000e+00 1.0000e+00
  1000022  1    1    2    0    0 -3.0639092947e+02 +3.7028161267e+02 -1.0910532508e+03 1.3403600285e+03 6.1252260000e+02 0.0000e+00 -1.0000e+00
       21  1    1    2  502  501 -2.3212916275e+01 -2.3172962907e+02 -1.1181132839e+03 1.1421097916e+03 0.0000000000e+00 0.0000e+00 1.0000e+00
<mgrwt>
<rscale>  1 0.72780869E+03</rscale>
<asrwt>0</asrwt>
<pdfrwt beam="2">  1        2 0.47697920E+00 0.72780869E+03</pdfrwt>
<pdfrwt beam="1">  1       -2 0.46663751E-01 0.72780869E+03</pdfrwt>
<totfact> 0.70239205E+00</totfact>
</mgrwt>
</event>
<event>
 5      1 +1.8937969e-08 7.12243800e+02 7.81665300e-03 9.69652000e-02
       -3 -1    0    0    0  501 -0.0000000000e+00 +0.0000000000e+00 +9.5933446495e+02 9.5933446966e+02 9.5000000000e-02 0.0000e+00 -1.0000e+00
        3 -1    0    0  502    0 +0.0000000000e+00 -0.0000000000e+00 -1.0112901670e+03 1.0112901714e+03 9.5000000000e-02 0.0000e+00 -1.0000e+00
  1000022  1    1    2    0    0 -1.9275642920e+02 +2.1769675493e+02 -5.1809662973e+02 8.5331997009e+02 6.1252260000e+02 0.0000e+00 1.0000e+00
  1000022  1    1    2    0    0 +3.7518474183e+02 -1.1610570637e+02 +5.2859604402e+02 8.9935634696e+02 6.1252260000e+02 0.0000e+00 1.0000e+00
       21  1    1    2  502  501 -1.8242831263e+02 -1.0159104856e+02 -6.2455116311e+01 2.1794832404e+02 0.0000000000e+00 0.0000e+00 1.0000e+00
<mgrwt>
<rscale>  1 0.71224384E+03</rscale>
<asrwt>0</asrwt>
<pdfrwt beam="2">  1        3 0.15558310E+00 0.71224384E+03</pdfrwt>
<pdfrwt beam="1">  1       -3 0.14758992E+00 0.71224384E+03</pdfrwt>
<totfact> 0.25661415E-01</totfact>
</mgrwt>
</event>
<event>
 5      1 +1.8937969e-08 8.58605100e+02 7.81665300e-03 9.47886000e-02
       -3 -1    0    0    0  501 -0.0000000000e+00 +0.0000000000e+00 +3.5693865223e+02 3.5693866487e+02 9.5000000000e-02 0.0000e+00 -1.0000e+00
        3 -1    0    0  502    0 +0.0000000000e+00 -0.0000000000e+00 -2.4894673600e+03 2.4894673618e+03 9.5000000000e-02 0.0000e+00 -1.0000e+00
  1000022  1    1    2    0    0 -3.7475475293e+02 +5.2835998944e+02 -1.0700953631e+03 1.3928005689e+03 6.1252260000e+02 0.0000e+00 1.0000e+00
  1000022  1    1    2    0    0 +3.4488650749e+02 -4.5081177583e+02 -7.2435851514e+02 1.1054669395e+03 6.1252260000e+02 0.0000e+00 1.0000e+00
       21  1    1    2  502  501 +2.9868245433e+01 -7.7548213612e+01 -3.3807482953e+02 3.4813851824e+02 0.0000000000e+00 0.0000e+00 -1.0000e+00
<mgrwt>
<rscale>  1 0.85860505E+03</rscale>
<asrwt>0</asrwt>
<pdfrwt beam="2">  1        3 0.38299497E+00 0.85860505E+03</pdfrwt>
<pdfrwt beam="1">  1       -3 0.54913642E-01 0.85860505E+03</pdfrwt>
<totfact> 0.11882250E-01</totfact>
</mgrwt>
</event>
<event>
 5      1 +1.8937969e-08 7.26208700e+02 7.81665300e-03 9.67343300e-02
       21 -1    0    0  501  502 +0.0000000000e+00 +0.0000000000e+00 +9.9266444933e+02 9.9266444933e+02 0.0000000000e+00 0.0000e+00 1.0000e+00
        2 -1    0    0  502    0 -0.0000000000e+00 -0.0000000000e+00 -4.2889815755e+03 4.2889815755e+03 2.5000000000e-03 0.0000e+00 1.0000e+00
  1000022  1    1    2    0    0 -2.6946485293e+02 +2.9508730314e+02 -3.7141576491e+03 3.7854773545e+03 6.1252260000e+02 0.0000e+00 1.0000e+00
  1000022  1    1    2    0    0 +2.2316201515e+02 -2.4337845603e+02 -3.1230801819e+02 7.6272838652e+02 6.1252260000e+02 0.0000e+00 -1.0000e+00
        2  1    1    2  501    0 +4.6302837788e+01 -5.1708847106e+01 +7.3014854118e+02 7.3344028376e+02 2.5000000000e-03 0.0000e+00 1.0000e+00
<mgrwt>
<rscale>  1 0.72620871E+03</rscale>
<asrwt>0</asrwt>
<pdfrwt beam="1">  1       21 0.15271761E+00 0.72620871E+03</pdfrwt>
<pdfrwt beam="2">  1        2 0.65984332E+00 0.72620871E+03</pdfrwt>
<totfact> 0.64389532E-01</totfact>
</mgrwt>
</event>
<event>
 5      1 +1.8937969e-08 1.10039100e+03 7.81665300e-03 9.20481100e-02
       -2 -1    0    0    0  501 -0.0000000000e+00 +0.0000000000e+00 +1.1720698569e+03 1.1720698569e+03 2.5000000000e-03 0.0000e+00 1.0000e+00
        2 -1    0    0  502    0 +0.0000000000e+00 -0.0000000000e+00 -1.2917043556e+03 1.2917043556e+03 2.5000000000e-03 0.0000e+00 -1.0000e+00
  1000022  1    1    2    0    0 +3.0358376106e+02 -8.5458440839e+02 +2.3729621159e+02 1.1198084830e+03 6.1252260000e+02 0.0000e+00 -1.0000e+00
  1000022  1    1    2    0    0 -2.8274292112e+02 +8.7348889019e+02 -4.9028196899e+02 1.2076782458e+03 6.1252260000e+02 0.0000e+00 1.0000e+00
       21  1    1    2  502  501 -2.0840839942e+01 -1.8904481792e+01 +1.3335125865e+02 1.3628748374e+02 0.0000000000e+00 0.0000e+00 1.0000e+00
<mgrwt>
<rscale>  1 0.11003907E+04</rscale>
<asrwt>0</asrwt>
<pdfrwt beam="2">  1        2 0.19872375E+00 0.11003907E+04</pdfrwt>
<pdfrwt beam="1">  1       -2 0.18031844E+00 0.11003907E+04</pdfrwt>
<totfact> 0.29578167E+00</totfact>
</mgrwt>
</event>
<event>
 5      1 +1.8937969e-08 8.38822500e+02 7.81665300e-03 9.50546300e-02
       -3 -1    0    0    0  501 -0.0000000000e+00 +0.0000000000e+00 +2.1166565320e+03 2.1166565341e+03 9.5000000000e-02 0.0000e+00 -1.0000e+00
        3 -1    0    0  502    0 +0.0000000000e+00 -0.0000000000e+00 -4.2811885779e+02 4.2811886833e+02 9.5000000000e-02 0.0000e+00 -1.0000e+00
  1000022  1    1    2    0    0 -3.0602654922e+02 -4.7794832255e+02 +1.2741931716e+03 1.5234300188e+03 6.1252260000e+02 0.0000e+00 1.0000e+00
  1000022  1    1    2    0    0 +3.3288790120e+02 +4.8052070831e+02 +4.6350614919e+02 9.6526493344e+02 6.1252260000e+02 0.0000e+00 1.0000e+00
       21  1    1    2  502  501 -2.6861351985e+01 -2.5723857602e+00 -4.9161646644e+01 5.6080450245e+01 0.0000000000e+00 0.0000e+00 1.0000e+00
<mgrwt>
<rscale>  1 0.83882254E+03</rscale>
<asrwt>0</asrwt>
<pdfrwt beam="2">  1        3 0.65864440E-01 0.83882254E+03</pdfrwt>
<pdfrwt beam="1">  1       -3 0.32563947E+00 0.83882254E+03</pdfrwt>
<totfact> 0.16036612E-01</totfact>
</mgrwt>
</event>
<event>
 5      1 +1.8937969e-08 7.01051600e+02 7.81665300e-03 9.71543500e-02
        3 -1    0    0  502    0 +0.0000000000e+00 +0.0000000000e+00 +2.8420065550e+03 2.8420065566e+03 9.5000000000e-02 0.0000e+00 1.0000e+00
       -3 -1    0    0    0  501 -0.0000000000e+00 -0.0000000000e+00 -4.3227771317e+02 4.3227772361e+02 9.5000000000e-02 0.0000e+00 1.0000e+00
  1000022  1    1    2    0    0 +1.5590901396e+02 +1.6599486766e+02 +2.6367525804e+02 7.0467758155e+02 6.1252260000e+02 0.0000e+00 -1.0000e+00
  1000022  1    1    2    0    0 -7.0076674099e+01 -3.7174448916e+02 +2.2207207053e+03 2.3344997520e+03 6.1252260000e+02 0.0000e+00 -1.0000e+00
       21  1    1    2  502  501 -8.5832339865e+01 +2.0574962150e+02 -7.4667121564e+01 2.3510694664e+02 0.0000000000e+00 0.0000e+00 1.0000e+00
<mgrwt>
<rscale>  1 0.70105162E+03</rscale>
<asrwt>0</asrwt>
<pdfrwt beam="1">  1        3 0.43723177E+00 0.70105162E+03</pdfrwt>
<pdfrwt beam="2">  1       -3 0.66504266E-01 0.70105162E+03</pdfrwt>
<totfact> 0.42019809E-02</totfact>
</mgrwt>
</event>
<event>
 5      1 +1.8937969e-08 8.71146000e+02 7.81665300e-03 9.46238700e-02
        3 -1    0    0  502    0 +0.0000000000e+00 +0.0000000000e+00 +7.5723517242e+02 7.5723517838e+02 9.5000000000e-02 0.0000e+00 -1.0000e+00
       -3 -1    0    0    0  501 -0.0000000000e+00 -0.0000000000e+00 -1.3312599104e+03 1.3312599138e+03 9.5000000000e-02 0.0000e+00 -1.0000e+00
  1000022  1    1    2    0    0 +4.9453620820e+02 -3.5279485860e+02 -1.1079000529e+02 8.6976355077e+02 6.1252260000e+02 0.0000e+00 1.0000e+00
  1000022  1    1    2    0    0 -5.2107945855e+02 +3.5767962350e+02 -1.3623404717e+02 8.9061897931e+02 6.1252260000e+02 0.0000e+00 1.0000e+00
       21  1    1    2  502  501 +2.6543250354e+01 -4.8847648995e+00 -3.2700068550e+02 3.2811256207e+02 0.0000000000e+00 0.0000e+00 1.0000e+00
<mgrwt>
<rscale>  1 0.87114604E+03</rscale>
<asrwt>0</asrwt>
<pdfrwt beam="1">  1        3 0.11649772E+00 0.87114604E+03</pdfrwt>
<pdfrwt beam="2">  1       -3 0.20480922E+00 0.87114604E+03</pdfrwt>
<totfact> 0.21362353E-01</totfact>
</mgrwt>
</event>
<event>
 5      1 +1.8937969e-08 6.62584600e+02 7.81665300e-03 9.78344800e-02
       21 -1    0    0  501  502 +0.0000000000e+00 +0.0000000000e+00 +2.2765514969e+03 2.2765514969e+03 0.0000000000e+00 0.0000e+00 -1.0000e+00
       -3 -1    0    0    0  501 -0.0000000000e+00 -0.0000000000e+00 -1.2998431559e+03 1.2998431594e+03 9.5000000000e-02 0.0000e+00 1.0000e+00
  1000022  1    1    2    0    0 +1.4474262361e+02 -2.0029547241e+02 -9.6104059687e+02 1.1661267803e+03 6.1252260000e+02 0.0000e+00 -1.0000e+00
  1000022  1    1    2    0    0 -1.4897311410e+02 +2.3587797119e+02 +2.4367682605e+02 7.1581683207e+02 6.1252260000e+02 0.0000e+00 -1.0000e+00
       -3  1    1    2    0  502 +4.2304904820e+00 -3.5582498777e+01 +1.6940721118e+03 1.6944510439e+03 9.5000000000e-02 0.0000e+00 -1.0000e+00
<mgrwt>
<rscale>  1 0.66258456E+03</rscale>
<asrwt>0</asrwt>
<pdfrwt beam="1">  1       21 0.35023869E+00 0.66258456E+03</pdfrwt>
<pdfrwt beam="2">  1       -3 0.19997587E+00 0.66258456E+03</pdfrwt>
<totfact> 0.94110321E-02</totfact>
</mgrwt>
</event>
<event>
 5      1 +1.8937969e-08 6.86724400e+02 7.81665300e-03 9.74020800e-02
       -1 -1    0    0    0  501 -0.0000000000e+00 +0.0000000000e+00 +4.3164516172e+02 4.3164516175e+02 5.0000000000e-03 0.0000e+00 1.0000e+00
        1 -1    0    0  502    0 +0.0000000000e+00 -0.0000000000e+00 -3.1982351958e+03 3.1982351958e+03 5.0000000000e-03 0.0000e+00 -1.0000e+00
  1000022  1    1    2    0    0 +1.2396688053e+02 +1.7286141397e+02 -1.8493817521e+03 1.9597565299e+03 6.1252260000e+02 0.0000e+00 -1.0000e+00
  1000022  1    1    2    0    0 -3.5638947445e+02 -5.0116718174e+02 -9.2411479835e+02 1.2678146937e+03 6.1252260000e+02 0.0000e+00 1.0000e+00
       21  1    1    2  502  501 +2.3242259393e+02 +3.2830576777e+02 +6.9065163460e+00 4.0230913398e+02 0.0000000000e+00 0.0000e+00 1.0000e+00
<mgrwt>
<rscale>  1 0.68672441E+03</rscale>
<asrwt>0</asrwt>
<pdfrwt beam="2">  1        1 0.49203617E+00 0.68672441E+03</pdfrwt>
<pdfrwt beam="1">  1       -1 0.66406950E-01 0.68672441E+03</pdfrwt>
<totfact> 0.10772906E+00</totfact>
</mgrwt>
</event>
<event>
 5      1 +1.8937969e-08 8.42990100e+02 7.81665300e-03 9.49979400e-02
       -3 -1    0    0    0  501 -0.0000000000e+00 +0.0000000000e+00 +6.5964525881e+02 6.5964526565e+02 9.5000000000e-02 0.0000e+00 -1.0000e+00
        3 -1    0    0  502    0 +0.0000000000e+00 -0.0000000000e+00 -1.2009716588e+03 1.2009716626e+03 9.5000000000e-02 0.0000e+00 -1.0000e+00
  1000022  1    1    2    0    0 +2.1332614495e+02 -5.2915508907e+02 -1.6921781516e+01 8.3724753485e+02 6.1252260000e+02 0.0000e+00 1.0000e+00
  1000022  1    1    2    0    0 -2.2537687914e+02 +5.4984644459e+02 -4.9960135510e+02 9.8889397804e+02 6.1252260000e+02 0.0000e+00 1.0000e+00
       21  1    1    2  502  501 +1.2050734183e+01 -2.0691355515e+01 -2.4803263390e+01 3.4475415330e+01 0.0000000000e+00 0.0000e+00 -1.0000e+00
<mgrwt>
<rscale>  1 0.84299006E+03</rscale>
<asrwt>0</asrwt>
<pdfrwt beam="2">  1        3 0.18476487E+00 0.84299006E+03</pdfrwt>
<pdfrwt beam="1">  1       -3 0.10148389E+00 0.84299006E+03</pdfrwt>
<totfact> 0.40201610E-01</totfact>
</mgrwt>
</event>
<event>
 5      1 +1.8937969e-08 7.35391900e+02 7.81665300e-03 9.65855100e-02
       -3 -1    0    0    0  501 -0.0000000000e+00 +0.0000000000e+00 +8.3871382899e+02 8.3871383437e+02 9.5000000000e-02 0.0000e+00 1.0000e+00
        3 -1    0    0  502    0 +0.0000000000e+00 -0.0000000000e+00 -1.1391639983e+03 1.1391640023e+03 9.5000000000e-02 0.0000e+00 1.0000e+00
  1000022  1    1    2    0    0 -1.4998733741e+02 -3.9773208760e+02 -5.0593441227e+02 9.0102196417e+02 6.1252260000e+02 0.0000e+00 -1.0000e+00
  1000022  1    1    2    0    0 +1.2960366698e+02 +3.8013159778e+02 +4.3092634464e+02 8.4981091552e+02 6.1252260000e+02 0.0000e+00 -1.0000e+00
       21  1    1    2  502  501 +2.0383670422e+01 +1.7600489827e+01 -2.2544210172e+02 2.2704495698e+02 0.0000000000e+00 0.0000e+00 1.0000e+00
<mgrwt>
<rscale>  1 0.73539193E+03</rscale>
<asrwt>0</asrwt>
<pdfrwt beam="2">  1        3 0.17525600E+00 0.73539193E+03</pdfrwt>
<pdfrwt beam="1">  1       -3 0.12903290E+00 0.73539193E+03</pdfrwt>
<totfact> 0.26188215E-01</totfact>
</mgrwt>
</event>
<event>
 5      1 +1.8937969e-08 8.38253700e+02 7.81665300e-03 9.50624000e-02
       -3 -1    0    0    0  501 -0.0000000000e+00 +0.0000000000e+00 +1.3119282008e+03 1.3119282042e+03 9.5000000000e-02 0.0000e+00 1.0000e+00
       21 -1    0    0  501  502 +0.0000000000e+00 -0.0000000000e+00 -1.6082452149e+03 1.6082452149e+03 0.0000000000e+00 0.0000e+00 1.0000e+00
  1000022  1    1    2    0    0 -3.9922686525e+02 -3.9839573081e+02 +7.8877100062e+01 8.3636521968e+02 6.1252260000e+02 0.0000e+00 -1.0000e+00
  1000022  1    1    2    0    0 +4.5055600595e+02 +3.6198826706e+02 +6.4555984843e+02 1.0611162393e+03 6.1252260000e+02 0.0000e+00 -1.0000e+00
       -3  1    1    2    0  502 -5.1329140695e+01 +3.6407463753e+01 -1.0207539626e+03 1.0226919602e+03 9.5000000000e-02 0.0000e+00 -1.0000e+00
<mgrwt>
<rscale>  1 0.83825366E+03</rscale>
<asrwt>0</asrwt>
<pdfrwt beam="2">  1       21 0.24742234E+00 0.83825366E+03</pdfrwt>
<pdfrwt beam="1">  1       -3 0.20183511E+00 0.83825366E+03</pdfrwt>
<totfact> 0.37285888E-01</totfact>
</mgrwt>
</event>
<event>
 5      1 +1.8937969e-08 8.66022200e+02 7.81665300e-03 9.46908100e-02
       -2 -1    0    0    0  501 -0.0000000000e+00 +0.0000000000e+00 +8.6257376332e+02 8.6257376333e+02 2.5000000000e-03 0.0000e+00 1.0000e+00
        2 -1    0    0  502    0 +0.0000000000e+00 -0.0000000000e+00 -1.0316446057e+03 1.0316446057e+03 2.5000000000e-03 0.0000e+00 -1.0000e+00
  1000022  1    1    2    0    0 -1.7636946010e+02 +6.3076628362e+02 +9.7322194115e+01 9.0201321276e+02 6.1252260000e+02 0.0000e+00 1.0000e+00
  1000022  1    1    2    0    0 +1.9881935754e+02 -5.5265611941e+02 -3.0561195608e+02 9.0196481443e+02 6.1252260000e+02 0.0000e+00 -1.0000e+00
       21  1    1    2  502  501 -2.2449897446e+01 -7.8110164206e+01 +3.9218919568e+01 9.0240341864e+01 0.0000000000e+00 0.0000e+00 1.0000e+00
<mgrwt>
<rscale>  1 0.86602215E+03</rscale>
<asrwt>0</asrwt>
<pdfrwt beam="2">  1        2 0.15871455E+00 0.86602215E+03</pdfrwt>
<pdfrwt beam="1">  1       -2 0.13270366E+00 0.86602215E+03</pdfrwt>
<totfact> 0.99564485E+00</totfact>
</mgrwt>
</event>
<event>
 5      1 +1.8937969e-08 8.64873600e+02 7.81665300e-03 9.47058900e-02
        3 -1    0    0  502    0 +0.0000000000e+00 +0.0000000000e+00 +1.4490132908e+03 1.4490132939e+03 9.5000000000e-02 0.0000e+00 -1.0000e+00
       -3 -1    0    0    0  501 -0.0000000000e+00 -0.0000000000e+00 -5.5522477370e+02 5.5522478183e+02 9.5000000000e-02 0.0000e+00 -1.0000e+00
  1000022  1    1    2    0    0 -1.1839549744e+02 +6.0163492819e+02 +2.4612583725e+02 9.0096833679e+02 6.1252260000e+02 0.0000e+00 1.0000e+00
  1000022  1    1    2    0    0 +9.2939768718e+01 -6.0000144951e+02 +6.0475601347e+02 1.0533533649e+03 6.1252260000e+02 0.0000e+00 1.0000e+00
       21  1    1    2  502  501 +2.5455728723e+01 -1.6334786845e+00 +4.2906666396e+01 4.9916374054e+01 0.0000000000e+00 0.0000e+00 1.0000e+00
<mgrwt>
<rscale>  1 0.86487355E+03</rscale>
<asrwt>0</asrwt>
<pdfrwt beam="1">  1        3 0.22292512E+00 0.86487355E+03</pdfrwt>
<pdfrwt beam="2">  1       -3 0.85419199E-01 0.86487355E+03</pdfrwt>
<totfact> 0.34583068E-01</totfact>
</mgrwt>
</event>
<event>
 5      1 +1.8937969e-08 8.64787600e+02 7.81665300e-03 9.47070200e-02
       -3 -1    0    0    0  501 -0.0000000000e+00 +0.0000000000e+00 +4.6259692061e+02 4.6259693036e+02 9.5000000000e-02 0.0000e+00 1.0000e+00
        3 -1    0    0  502    0 +0.0000000000e+00 -0.0000000000e+00 -1.8388203481e+03 1.8388203505e+03 9.5000000000e-02 0.0000e+00 1.0000e+00
  1000022  1    1    2    0    0 +6.2177622041e+02 -7.9850162043e+01 -8.5741624894e+02 1.2261028815e+03 6.1252260000e+02 0.0000e+00 -1.0000e+00
  1000022  1    1    2    0    0 -5.7807839927e+02 +1.2195650556e+02 -5.4353849769e+02 1.0097851548e+03 6.1252260000e+02 0.0000e+00 -1.0000e+00
       21  1    1    2  502  501 -4.3697821144e+01 -4.2106343513e+01 +2.4731319182e+01 6.5529244505e+01 0.0000000000e+00 0.0000e+00 1.0000e+00
<mgrwt>
<rscale>  1 0.86478757E+03</rscale>
<asrwt>0</asrwt>
<pdfrwt beam="2">  1        3 0.28289544E+00 0.86478757E+03</pdfrwt>
<pdfrwt beam="1">  1       -3 0.71168759E-01 0.86478757E+03</pdfrwt>
<totfact> 0.23639485E-01</totfact>
</mgrwt>
</event>
<event>
 5      1 +1.8937969e-08 6.76412900e+02 7.81665300e-03 9.75844200e-02
        3 -1    0    0  502    0 -0.0000000000e+00 +0.0000000000e+00 +4.6408645574e+02 4.6408646546e+02 9.5000000000e-02 0.0000e+00 -1.0000e+00
       21 -1    0    0  501  502 +0.0000000000e+00 -0.0000000000e+00 -1.8221682255e+03 1.8221682255e+03 0.0000000000e+00 0.0000e+00 -1.0000e+00
  1000022  1    1    2    0    0 +2.8096731758e+02 -4.4478591066e+00 -1.2837914932e+03 1.4499196359e+03 6.1252260000e+02 0.0000e+00 1.0000e+00
  1000022  1    1    2    0    0 -2.8205702102e+02 -6.7088496922e+01 +6.3944315901e+01 6.8068336293e+02 6.1252260000e+02 0.0000e+00 1.0000e+00
        3  1    1    2  501    0 +1.0897034482e+00 +7.1536356029e+01 -1.3823459244e+02 1.5565169212e+02 9.5000000000e-02 0.0000e+00 1.0000e+00
<mgrwt>
<rscale>  1 0.67641288E+03</rscale>
<asrwt>0</asrwt>
<pdfrwt beam="2">  1       21 0.28033358E+00 0.67641288E+03</pdfrwt>
<pdfrwt beam="1">  1        3 0.71397916E-01 0.67641288E+03</pdfrwt>
<totfact> 0.32144454E+00</totfact>
</mgrwt>
</event>
<event>
 5      1 +1.8937969e-08 8.99511800e+02 7.81665300e-03 9.42619200e-02
        2 -1    0    0  502    0 +0.0000000000e+00 +0.0000000000e+00 +2.4445793827e+03 2.4445793827e+03 2.5000000000e-03 0.0000e+00 -1.0000e+00
       -2 -1    0    0    0  501 -0.0000000000e+00 -0.0000000000e+00 -5.6174758732e+02 5.6174758732e+02 2.5000000000e-03 0.0000e+00 1.0000e+00
  1000022  1    1    2    0    0 -3.4374138936e+02 +5.4972324025e+02 +1.5589547105e+03 1.7960728016e+03 6.1252260000e+02 0.0000e+00 -1.0000e+00
  1000022  1    1    2    0    0 +3.0586880701e+02 -5.8713566429e+02 +2.0412520762e+01 9.0215554197e+02 6.1252260000e+02 0.0000e+00 1.0000e+00
       21  1    1    2  502  501 +3.7872582350e+01 +3.7412424045e+01 +3.0346456405e+02 3.0809862642e+02 0.0000000000e+00 0.0000e+00 1.0000e+00
<mgrwt>
<rscale>  1 0.89951179E+03</rscale>
<asrwt>0</asrwt>
<pdfrwt beam="1">  1        2 0.37608914E+00 0.89951179E+03</pdfrwt>
<pdfrwt beam="2">  1       -2 0.86422705E-01 0.89951179E+03</pdfrwt>
<totfact> 0.44476238E+00</totfact>
</mgrwt>
</event>
<event>
 5      1 +1.8937969e-08 7.82952700e+02 7.81665300e-03 9.58502500e-02
        2 -1    0    0  502    0 -0.0000000000e+00 +0.0000000000e+00 +1.5029028435e+03 1.5029028435e+03 2.5000000000e-03 0.0000e+00 1.0000e+00
       21 -1    0    0  501  502 +0.0000000000e+00 -0.0000000000e+00 -1.1528046414e+03 1.1528046414e+03 0.0000000000e+00 0.0000e+00 -1.0000e+00
  1000022  1    1    2    0    0 +4.5907311273e+02 -1.7699688660e+02 +1.0242535845e+03 1.2908738752e+03 6.1252260000e+02 0.0000e+00 1.0000e+00
  1000022  1    1    2    0    0 -3.5366072989e+02 +3.3848429104e+02 -8.1122530707e+02 1.1282366602e+03 6.1252260000e+02 0.0000e+00 -1.0000e+00
        2  1    1    2  501    0 -1.0541238285e+02 -1.6148740444e+02 +1.3706992466e+02 2.3659694947e+02 2.5000000000e-03 0.0000e+00 1.0000e+00
<mgrwt>
<rscale>  1 0.78295275E+03</rscale>
<asrwt>0</asrwt>
<pdfrwt beam="2">  1       21 0.17735456E+00 0.78295275E+03</pdfrwt>
<pdfrwt beam="1">  1        2 0.23121582E+00 0.78295275E+03</pdfrwt>
<totfact> 0.24291720E+01</totfact>
</mgrwt>
</event>
<event>
 5      1 +1.8937969e-08 7.98730000e+02 7.81665300e-03 9.56185700e-02
       -3 -1    0    0    0  501 -0.0000000000e+00 +0.0000000000e+00 +7.7122527610e+02 7.7122528195e+02 9.5000000000e-02 0.0000e+00 1.0000e+00
        3 -1    0    0  502    0 +0.0000000000e+00 -0.0000000000e+00 -1.0459354017e+03 1.0459354060e+03 9.5000000000e-02 0.0000e+00 1.0000e+00
  1000022  1    1    2    0    0 +4.2976450687e+02 -3.1823692585e+02 -4.7586396218e+02 9.4212669973e+02 6.1252260000e+02 0.0000e+00 -1.0000e+00
  1000022  1    1    2    0    0 -3.8060831752e+02 +3.2983313115e+02 +2.1691836913e+02 8.2212535549e+02 6.1252260000e+02 0.0000e+00 -1.0000e+00
       21  1    1    2  502  501 -4.9156189356e+01 -1.1596205304e+01 -1.5764532511e+01 5.2908632706e+01 0.0000000000e+00 0.0000e+00 -1.0000e+00
<mgrwt>
<rscale>  1 0.79873002E+03</rscale>
<asrwt>0</asrwt>
<pdfrwt beam="2">  1        3 0.16091314E+00 0.79873002E+03</pdfrwt>
<pdfrwt beam="1">  1       -3 0.11865004E+00 0.79873002E+03</pdfrwt>
<totfact> 0.40368848E-01</totfact>
</mgrwt>
</event>
<event>
 5      1 +1.8937969e-08 7.39329500e+02 7.81665300e-03 9.65224100e-02
        2 -1    0    0  502    0 +0.0000000000e+00 +0.0000000000e+00 +5.9543568161e+02 5.9543568161e+02 2.5000000000e-03 0.0000e+00 1.0000e+00
       -2 -1    0    0    0  501 -0.0000000000e+00 -0.0000000000e+00 -1.0643399017e+03 1.0643399017e+03 2.5000000000e-03 0.0000e+00 -1.0000e+00
  1000022  1    1    2    0    0 -2.6566086932e+02 -3.4807263983e+02 -2.3973416435e+01 7.5331860477e+02 6.1252260000e+02 0.0000e+00 1.0000e+00
  1000022  1    1    2    0    0 +2.4564607761e+02 +3.1675822639e+02 -4.6193244548e+02 8.6558840630e+02 6.1252260000e+02 0.0000e+00 -1.0000e+00
       21  1    1    2  502  501 +2.0014791718e+01 +3.1314413443e+01 +1.7001641785e+01 4.0868572280e+01 0.0000000000e+00 0.0000e+00 -1.0000e+00
<mgrwt>
<rscale>  1 0.73932946E+03</rscale>
<asrwt>0</asrwt>
<pdfrwt beam="1">  1        2 0.91605490E-01 0.73932946E+03</pdfrwt>
<pdfrwt beam="2">  1       -2 0.16374460E+00 0.73932946E+03</pdfrwt>
<totfact> 0.12032459E+01</totfact>
</mgrwt>
</event>
<event>
 5      1 +1.8937969e-08 6.86822300e+02 7.81665300e-03 9.74003700e-02
        2 -1    0    0  502    0 +0.0000000000e+00 +0.0000000000e+00 +3.8367730594e+03 3.8367730594e+03 2.5000000000e-03 0.0000e+00 -1.0000e+00
       -2 -1    0    0    0  501 -0.0000000000e+00 -0.0000000000e+00 -2.2583371984e+02 2.2583371985e+02 2.5000000000e-03 0.0000e+00 1.0000e+00
  1000022  1    1    2    0    0 -3.0677596867e+02 -1.3490456201e+02 +3.0629080323e+03 3.1414805881e+03 6.1252260000e+02 0.0000e+00 -1.0000e+00
  1000022  1    1    2    0    0 +2.7596891577e+02 +1.3156916379e+02 +4.5230081423e+02 8.2050548407e+02 6.1252260000e+02 0.0000e+00 1.0000e+00
       21  1    1    2  502  501 +3.0807052899e+01 +3.3353982246e+00 +9.5730493023e+01 1.0062070703e+02 0.0000000000e+00 0.0000e+00 -1.0000e+00
<mgrwt>
<rscale>  1 0.68682231E+03</rscale>
<asrwt>0</asrwt>
<pdfrwt beam="1">  1        2 0.59027282E+00 0.68682231E+03</pdfrwt>
<pdfrwt beam="2">  1       -2 0.34743647E-01 0.68682231E+03</pdfrwt>
<totfact> 0.39859797E+00</totfact>
</mgrwt>
</event>
<event>
 5      1 +1.8937969e-08 6.62413200e+02 7.81665300e-03 9.78376200e-02
       -2 -1    0    0    0  501 -0.0000000000e+00 +0.0000000000e+00 +1.1835903696e+03 1.1835903696e+03 2.5000000000e-03 0.0000e+00 -1.0000e+00
        2 -1    0    0  502    0 +0.0000000000e+00 -0.0000000000e+00 -2.0090792820e+03 2.0090792820e+03 2.5000000000e-03 0.0000e+00 1.0000e+00
  1000022  1    1    2    0    0 +1.1720890945e+02 +4.4216048117e+02 -1.5091730788e+03 1.6917538641e+03 6.1252260000e+02 0.0000e+00 1.0000e+00
  1000022  1    1    2    0    0 +1.9092913873e+02 -1.6765204787e+02 +8.3061738693e+02 1.0628595035e+03 6.1252260000e+02 0.0000e+00 -1.0000e+00
       21  1    1    2  502  501 -3.0813804818e+02 -2.7450843330e+02 -1.4693322056e+02 4.3805628405e+02 0.0000000000e+00 0.0000e+00 -1.0000e+00
<mgrwt>
<rscale>  1 0.66241317E+03</rscale>
<asrwt>0</asrwt>
<pdfrwt beam="2">  1        2 0.30908912E+00 0.66241317E+03</pdfrwt>
<pdfrwt beam="1">  1       -2 0.18209083E+00 0.66241317E+03</pdfrwt>
<totfact> 0.12291580E+00</totfact>
</mgrwt>
</event>
<event>
 5      1 +1.8937969e-08 7.70790900e+02 7.81665300e-03 9.60328600e-02
       -3 -1    0    0    0  501 -0.0000000000e+00 +0.0000000000e+00 +1.2168585425e+03 1.2168585462e+03 9.5000000000e-02 0.0000e+00 1.0000e+00
        3 -1    0    0  502    0 +0.0000000000e+00 -0.0000000000e+00 -7.2686778266e+02 7.2686778887e+02 9.5000000000e-02 0.0000e+00 1.0000e+00
  1000022  1    1    2    0    0 -4.6633882536e+02 -2.0028863265e+02 +5.8638461155e+02 9.8823999341e+02 6.1252260000e+02 0.0000e+00 -1.0000e+00
  1000022  1    1    2    0    0 +3.7940105950e+02 +2.5228648761e+02 -2.2114566111e+02 7.9478486065e+02 6.1252260000e+02 0.0000e+00 -1.0000e+00
       21  1    1    2  502  501 +8.6937765852e+01 -5.1997854958e+01 +1.2475180939e+02 1.6070148100e+02 0.0000000000e+00 0.0000e+00 1.0000e+00
<mgrwt>
<rscale>  1 0.77079092E+03</rscale>
<asrwt>0</asrwt>
<pdfrwt beam="2">  1        3 0.11182581E+00 0.77079092E+03</pdfrwt>
<pdfrwt beam="1">  1       -3 0.18720900E+00 0.77079092E+03</pdfrwt>
<totfact> 0.30776183E-01</totfact>
</mgrwt>
</event>
<event>
 5      1 +1.8937969e-08 6.49560700e+02 7.81665300e-03 9.80760400e-02
        2 -1    0    0  502    0 +0.0000000000e+00 +0.0000000000e+00 +1.7249802504e+03 1.7249802504e+03 2.5000000000e-03 0.0000e+00 -1.0000e+00
       -2 -1    0    0    0  501 -0.0000000000e+00 -0.0000000000e+00 -4.8703440142e+02 4.8703440143e+02 2.5000000000e-03 0.0000e+00 1.0000e+00
  1000022  1    1    2    0    0 +1.8899103003e+02 -9.0905426724e+01 +1.3344182336e+03 1.4831848717e+03 6.1252260000e+02 0.0000e+00 -1.0000e+00
  1000022  1    1    2    0    0 -2.2258305574e+02 +1.0668111221e+02 -4.0440114558e+01 6.6162180646e+02 6.1252260000e+02 0.0000e+00 1.0000e+00
       21  1    1    2  502  501 +3.3592025705e+01 -1.5775685484e+01 -5.6032270023e+01 6.7207973689e+01 0.0000000000e+00 0.0000e+00 1.0000e+00
<mgrwt>
<rscale>  1 0.64956065E+03</rscale>
<asrwt>0</asrwt>
<pdfrwt beam="1">  1        2 0.26538158E+00 0.64956065E+03</pdfrwt>
<pdfrwt beam="2">  1       -2 0.74928369E-01 0.64956065E+03</pdfrwt>
<totfact> 0.15863214E+01</totfact>
</mgrwt>
</event>
<event>
 5      1 +1.8937969e-08 6.96737000e+02 7.81665300e-03 9.72282900e-02
       -1 -1    0    0    0  501 -0.0000000000e+00 +0.0000000000e+00 +3.4468487425e+02 3.4468487429e+02 5.0000000000e-03 0.0000e+00 -1.0000e+00
        1 -1    0    0  502    0 +0.0000000000e+00 -0.0000000000e+00 -1.7889188047e+03 1.7889188047e+03 5.0000000000e-03 0.0000e+00 1.0000e+00
  1000022  1    1    2    0    0 +2.3837384781e+02 +3.0108150764e+02 -7.9939182320e+02 1.0778141714e+03 6.1252260000e+02 0.0000e+00 1.0000e+00
  1000022  1    1    2    0    0 -2.4613056756e+02 -1.4216983110e+02 -5.4697206836e+02 8.6899648805e+02 6.1252260000e+02 0.0000e+00 -1.0000e+00
       21  1    1    2  502  501 +7.7567197471e+00 -1.5891167654e+02 -9.7870038911e+01 1.8679301956e+02 0.0000000000e+00 0.0000e+00 -1.0000e+00
<mgrwt>
<rscale>  1 0.69673695E+03</rscale>
<asrwt>0</asrwt>
<pdfrwt beam="2">  1        1 0.27521827E+00 0.69673695E+03</pdfrwt>
<pdfrwt beam="1">  1       -1 0.53028443E-01 0.69673695E+03</pdfrwt>
<totfact> 0.15581507E+01</totfact>
</mgrwt>
</event>
<event>
 5      1 +1.8937969e-08 8.26734300e+02 7.81665300e-03 9.52210700e-02
       -3 -1    0    0    0  501 -0.0000000000e+00 +0.0000000000e+00 +1.5759128524e+03 1.5759128553e+03 9.5000000000e-02 0.0000e+00 -1.0000e+00
        3 -1    0    0  502    0 +0.0000000000e+00 -0.0000000000e+00 -5.6066587679e+02 5.6066588484e+02 9.5000000000e-02 0.0000e+00 -1.0000e+00
  1000022  1    1    2    0    0 -1.1616138243e+02 -5.6350330502e+02 +2.1538236872e+02 8.6752691129e+02 6.1252260000e+02 0.0000e+00 1.0000e+00
  1000022  1    1    2    0    0 +5.9829030152e-02 +5.4864986329e+02 +8.0652144420e+02 1.1518148512e+03 6.1252260000e+02 0.0000e+00 1.0000e+00
       21  1    1    2  502  501 +1.1610155340e+02 +1.4853441729e+01 -6.6568372885e+00 1.1723697760e+02 0.0000000000e+00 0.0000e+00 -1.0000e+00
<mgrwt>
<rscale>  1 0.82673427E+03</rscale>
<asrwt>0</asrwt>
<pdfrwt beam="2">  1        3 0.86256289E-01 0.82673427E+03</pdfrwt>
<pdfrwt beam="1">  1       -3 0.24244813E+00 0.82673427E+03</pdfrwt>
<totfact> 0.25839138E-01</totfact>
</mgrwt>
</event>
<event>
 5      1 +1.8937969e-08 8.67550900e+02 7.81665300e-03 9.46707900e-02
        1 -1    0    0  502    0 +0.0000000000e+00 +0.0000000000e+00 +7.9817373231e+02 7.9817373233e+02 5.0000000000e-03 0.0000e+00 -1.0000e+00
       -1 -1    0    0    0  501 -0.0000000000e+00 -0.0000000000e+00 -1.3453512709e+03 1.3453512709e+03 5.0000000000e-03 0.0000e+00 -1.0000e+00
  1000022  1    1    2    0    0 -3.4162829661e+02 -5.5041184809e+02 -3.3795442588e+02 9.5344649826e+02 6.1252260000e+02 0.0000e+00 1.0000e+00
  1000022  1    1    2    0    0 +3.6547948608e+02 +4.7096885990e+02 +1.0860364560e+02 8.6160641193e+02 6.1252260000e+02 0.0000e+00 1.0000e+00
       21  1    1    2  502  501 -2.3851189465e+01 +7.9442988193e+01 -3.1782675831e+02 3.2847209304e+02 0.0000000000e+00 0.0000e+00 -1.0000e+00
<mgrwt>
<rscale>  1 0.86755091E+03</rscale>
<asrwt>0</asrwt>
<pdfrwt beam="1">  1        1 0.12279596E+00 0.86755091E+03</pdfrwt>
<pdfrwt beam="2">  1       -1 0.20697712E+00 0.86755091E+03</pdfrwt>
<totfact> 0.30564046E+00</totfact>
</mgrwt>
</event>
<event>
 5      1 +1.8937969e-08 7.90090100e+02 7.81665300e-03 9.57447300e-02
        1 -1    0    0  502    0 +0.0000000000e+00 +0.0000000000e+00 +6.5674172884e+02 6.5674172886e+02 5.0000000000e-03 0.0000e+00 -1.0000e+00
       -1 -1    0    0    0  501 -0.0000000000e+00 -0.0000000000e+00 -1.2192013365e+03 1.2192013365e+03 5.0000000000e-03 0.0000e+00 -1.0000e+00
  1000022  1    1    2    0    0 -2.8939811521e+02 -4.1700639594e+02 +1.3126348480e+02 8.0626276194e+02 6.1252260000e+02 0.0000e+00 1.0000e+00
  1000022  1    1    2    0    0 +2.8865635553e+02 +3.8144423093e+02 -6.4891732440e+02 1.0124721341e+03 6.1252260000e+02 0.0000e+00 1.0000e+00
       21  1    1    2  502  501 +7.4175968389e-01 +3.5562165010e+01 -4.4805768077e+01 5.7208169352e+01 0.0000000000e+00 0.0000e+00 -1.0000e+00
<mgrwt>
<rscale>  1 0.79009007E+03</rscale>
<asrwt>0</asrwt>
<pdfrwt beam="1">  1        1 0.10103719E+00 0.79009007E+03</pdfrwt>
<pdfrwt beam="2">  1       -1 0.18756944E+00 0.79009007E+03</pdfrwt>
<totfact> 0.56733033E+00</totfact>
</mgrwt>
</event>
<event>
 5      1 +1.8937969e-08 8.58196300e+02 7.81665300e-03 9.47940200e-02
        3 -1    0    0  502    0 -0.0000000000e+00 +0.0000000000e+00 +1.6658376508e+03 1.6658376535e+03 9.5000000000e-02 0.0000e+00 1.0000e+00
       21 -1    0    0  501  502 +0.0000000000e+00 -0.0000000000e+00 -1.5410693880e+03 1.5410693880e+03 0.0000000000e+00 0.0000e+00 -1.0000e+00
  1000022  1    1    2    0    0 -2.4683446860e+02 +5.2616853379e+02 +3.8474896317e+02 9.2789885280e+02 6.1252260000e+02 0.0000e+00 -1.0000e+00
  1000022  1    1    2    0    0 +2.6548790128e+02 -5.5449987482e+02 +8.2268897068e+02 1.1958072649e+03 6.1252260000e+02 0.0000e+00 -1.0000e+00
        3  1    1    2  501    0 -1.8653432674e+01 +2.8331341026e+01 -1.0826696711e+03 1.0832009237e+03 9.5000000000e-02 0.0000e+00 -1.0000e+00
<mgrwt>
<rscale>  1 0.85819632E+03</rscale>
<asrwt>0</asrwt>
<pdfrwt beam="2">  1       21 0.23708760E+00 0.85819632E+03</pdfrwt>
<pdfrwt beam="1">  1        3 0.25628271E+00 0.85819632E+03</pdfrwt>
<totfact> 0.20674125E-01</totfact>
</mgrwt>
</event>
<event>
 5      1 +1.8937969e-08 8.42771400e+02 7.81665300e-03 9.50009100e-02
       -1 -1    0    0    0  501 -0.0000000000e+00 +0.0000000000e+00 +6.3246720642e+02 6.3246720644e+02 5.0000000000e-03 0.0000e+00 1.0000e+00
        1 -1    0    0  502    0 +0.0000000000e+00 -0.0000000000e+00 -2.1272543922e+03 2.1272543922e+03 5.0000000000e-03 0.0000e+00 1.0000e+00
  1000022  1    1    2    0    0 +5.9438129131e+02 +2.5623130185e+02 -5.3298348878e+02 1.0383635848e+03 6.1252260000e+02 0.0000e+00 -1.0000e+00
  1000022  1    1    2    0    0 -4.9356168495e+02 -2.1987068797e+02 -6.6303554355e+01 8.1946711533e+02 6.1252260000e+02 0.0000e+00 -1.0000e+00
       21  1    1    2  502  501 -1.0081960637e+02 -3.6360613883e+01 -8.9550014262e+02 9.0189089845e+02 0.0000000000e+00 0.0000e+00 -1.0000e+00
<mgrwt>
<rscale>  1 0.84277137E+03</rscale>
<asrwt>0</asrwt>
<pdfrwt beam="2">  1        1 0.32726990E+00 0.84277137E+03</pdfrwt>
<pdfrwt beam="1">  1       -1 0.97302648E-01 0.84277137E+03</pdfrwt>
<totfact> 0.25708973E+00</totfact>
</mgrwt>
</event>
<event>
 5      1 +1.8937969e-08 8.39383100e+02 7.81665300e-03 9.50469800e-02
       -2 -1    0    0    0  501 -0.0000000000e+00 +0.0000000000e+00 +4.0439884771e+02 4.0439884772e+02 2.5000000000e-03 0.0000e+00 1.0000e+00
        2 -1    0    0  502    0 +0.0000000000e+00 -0.0000000000e+00 -2.1103060715e+03 2.1103060715e+03 2.5000000000e-03 0.0000e+00 -1.0000e+00
  1000022  1    1    2    0    0 +1.1668195992e+02 +5.2021424884e+02 -9.8667716848e+02 1.2778706174e+03 6.1252260000e+02 0.0000e+00 1.0000e+00
  1000022  1    1    2    0    0 -1.7839364964e+02 -5.7384001808e+02 -4.7823431580e+02 9.8234854145e+02 6.1252260000e+02 0.0000e+00 -1.0000e+00
       21  1    1    2  502  501 +6.1711689719e+01 +5.3625769235e+01 -2.4099573948e+02 2.5448576035e+02 0.0000000000e+00 0.0000e+00 1.0000e+00
<mgrwt>
<rscale>  1 0.83938308E+03</rscale>
<asrwt>0</asrwt>
<pdfrwt beam="2">  1        2 0.32466247E+00 0.83938308E+03</pdfrwt>
<pdfrwt beam="1">  1       -2 0.62215209E-01 0.83938308E+03</pdfrwt>
<totfact> 0.14245561E+01</totfact>
</mgrwt>
</event>
<event>
 5      1 +1.8937969e-08 8.12517100e+02 7.81665300e-03 9.54207400e-02
       -3 -1    0    0    0  501 -0.0000000000e+00 +0.0000000000e+00 +6.5375388030e+02 6.5375388720e+02 9.5000000000e-02 0.0000e+00 1.0000e+00
        3 -1    0    0  502    0 +0.0000000000e+00 -0.0000000000e+00 -1.4073932735e+03 1.4073932767e+03 9.5000000000e-02 0.0000e+00 1.0000e+00
  1000022  1    1    2    0    0 +5.9180054701e+02 +8.7766688851e+01 +1.7179041429e+01 8.5639356262e+02 6.1252260000e+02 0.0000e+00 -1.0000e+00
  1000022  1    1    2    0    0 -4.0790305448e+02 -8.2838016341e+01 -5.9063583041e+02 9.4724952282e+02 6.1252260000e+02 0.0000e+00 -1.0000e+00
       21  1    1    2  502  501 -1.8389749253e+02 -4.9286725098e+00 -1.8018260427e+02 2.5750407851e+02 0.0000000000e+00 0.0000e+00 1.0000e+00
<mgrwt>
<rscale>  1 0.81251710E+03</rscale>
<asrwt>0</asrwt>
<pdfrwt beam="2">  1        3 0.21652204E+00 0.81251710E+03</pdfrwt>
<pdfrwt beam="1">  1       -3 0.10057752E+00 0.81251710E+03</pdfrwt>
<totfact> 0.25983506E-01</totfact>
</mgrwt>
</event>
<event>
 5      1 +1.8937969e-08 8.69282500e+02 7.81665300e-03 9.46481600e-02
        3 -1    0    0  502    0 +0.0000000000e+00 +0.0000000000e+00 +7.4331704470e+02 7.4331705078e+02 9.5000000000e-02 0.0000e+00 -1.0000e+00
       -3 -1    0    0    0  501 -0.0000000000e+00 -0.0000000000e+00 -1.1690648198e+03 1.1690648237e+03 9.5000000000e-02 0.0000e+00 -1.0000e+00
  1000022  1    1    2    0    0 -3.6952932317e+02 -5.1274336487e+02 +3.1787925612e+01 8.8071112552e+02 6.1252260000e+02 0.0000e+00 1.0000e+00
  1000022  1    1    2    0    0 +3.3397094819e+02 +4.9110643990e+02 -3.6073861886e+02 9.2630363067e+02 6.1252260000e+02 0.0000e+00 1.0000e+00
       21  1    1    2  502  501 +3.5558374975e+01 +2.1636924972e+01 -9.6797081860e+01 1.0536711826e+02 0.0000000000e+00 0.0000e+00 -1.0000e+00
<mgrwt>
<rscale>  1 0.86928247E+03</rscale>
<asrwt>0</asrwt>
<pdfrwt beam="1">  1        3 0.11435647E+00 0.86928247E+03</pdfrwt>
<pdfrwt beam="2">  1       -3 0.17985613E+00 0.86928247E+03</pdfrwt>
<totfact> 0.32402058E-01</totfact>
</mgrwt>
</event>
<event>
 5      1 +1.8937969e-08 9.23171300e+02 7.81665300e-03 9.39707100e-02
       21 -1    0    0  501  502 +0.0000000000e+00 +0.0000000000e+00 +1.1506363338e+03 1.1506363338e+03 0.0000000000e+00 0.0000e+00 1.0000e+00
        3 -1    0    0  502    0 -0.0000000000e+00 -0.0000000000e+00 -1.0224123750e+03 1.0224123794e+03 9.5000000000e-02 0.0000e+00 -1.0000e+00
  1000022  1    1    2    0    0 -6.7293531650e+02 -2.0468417254e+02 +1.3576554927e+02 9.4252520951e+02 6.1252260000e+02 0.0000e+00 1.0000e+00
  1000022  1    1    2    0    0 +6.2648974062e+02 +2.7584789116e+02 -2.6774666122e+02 9.5679342821e+02 6.1252260000e+02 0.0000e+00 1.0000e+00
        3  1    1    2  501    0 +4.6445575886e+01 -7.1163718623e+01 +2.6020507071e+02 2.7373007547e+02 9.5000000000e-02 0.0000e+00 1.0000e+00
<mgrwt>
<rscale>  1 0.92317132E+03</rscale>
<asrwt>0</asrwt>
<pdfrwt beam="1">  1       21 0.17702097E+00 0.92317132E+03</pdfrwt>
<pdfrwt beam="2">  1        3 0.15729421E+00 0.92317132E+03</pdfrwt>
<totfact> 0.21812079E+00</totfact>
</mgrwt>
</event>
<event>
 5      1 +1.8937969e-08 8.73181200e+02 7.81665300e-03 9.45974100e-02
       -3 -1    0    0    0  501 -0.0000000000e+00 +0.0000000000e+00 +7.1894619637e+02 7.1894620264e+02 9.5000000000e-02 0.0000e+00 1.0000e+00
        3 -1    0    0  502    0 +0.0000000000e+00 -0.0000000000e+00 -1.4518079283e+03 1.4518079314e+03 9.5000000000e-02 0.0000e+00 1.0000e+00
  1000022  1    1    2    0    0 +4.3753317976e+02 -5.0519900026e+02 -5.0593485733e+01 9.0796748266e+02 6.1252260000e+02 0.0000e+00 -1.0000e+00
  1000022  1    1    2    0    0 -4.3835256556e+02 +3.5878695105e+02 -3.5969549678e+02 9.0854049656e+02 6.1252260000e+02 0.0000e+00 -1.0000e+00
       21  1    1    2  502  501 +8.1938579807e-01 +1.4641204921e+02 -3.2257274943e+02 3.5424615484e+02 0.0000000000e+00 0.0000e+00 1.0000e+00
<mgrwt>
<rscale>  1 0.87318122E+03</rscale>
<asrwt>0</asrwt>
<pdfrwt beam="2">  1        3 0.22335507E+00 0.87318122E+03</pdfrwt>
<pdfrwt beam="1">  1       -3 0.11060711E+00 0.87318122E+03</pdfrwt>
<totfact> 0.18753186E-01</totfact>
</mgrwt>
</event>
<event>
 5      1 +1.8937969e-08 1.03253100e+03 7.81665300e-03 9.27356800e-02
        2 -1    0    0  502    0 +0.0000000000e+00 +0.0000000000e+00 +1.7927542755e+03 1.7927542755e+03 2.5000000000e-03 0.0000e+00 -1.0000e+00
       -2 -1    0    0    0  501 -0.0000000000e+00 -0.0000000000e+00 -1.2422902173e+03 1.2422902173e+03 2.5000000000e-03 0.0000e+00 1.0000e+00
  1000022  1    1    2    0    0 +4.9473200657e+02 +1.1514536549e+03 +3.4291712829e+02 1.4364474825e+03 6.1252260000e+02 0.0000e+00 -1.0000e+00
  1000022  1    1    2    0    0 -4.1590958481e+02 -4.9065560682e+02 -3.8620635115e+01 8.8904397878e+02 6.1252260000e+02 0.0000e+00 1.0000e+00
       21  1    1    2  502  501 -7.8822421757e+01 -6.6079804806e+02 +2.4616756507e+02 7.0955303155e+02 0.0000000000e+00 0.0000e+00 1.0000e+00
<mgrwt>
<rscale>  1 0.10325305E+04</rscale>
<asrwt>0</asrwt>
<pdfrwt beam="1">  1        2 0.27580835E+00 0.10325305E+04</pdfrwt>
<pdfrwt beam="2">  1       -2 0.19112157E+00 0.10325305E+04</pdfrwt>
<totfact> 0.13150266E+00</totfact>
</mgrwt>
</event>
<event>
 5      1 +1.8937969e-08 6.46891900e+02 7.81665300e-03 9.81262900e-02
        3 -1    0    0  502    0 +0.0000000000e+00 +0.0000000000e+00 +6.9418332087e+02 6.9418332737e+02 9.5000000000e-02 0.0000e+00 1.0000e+00
       -3 -1    0    0    0  501 -0.0000000000e+00 -0.0000000000e+00 -1.3624190318e+03 1.3624190352e+03 9.5000000000e-02 0.0000e+00 1.0000e+00
  1000022  1    1    2    0    0 -7.6396955957e+01 -1.7648494509e+02 +3.7779097123e+02 7.4491166200e+02 6.1252260000e+02 0.0000e+00 -1.0000e+00
  1000022  1    1    2    0    0 +1.4807420977e+02 +2.5057766905e+02 -8.2611194783e+02 1.0688124371e+03 6.1252260000e+02 0.0000e+00 -1.0000e+00
       21  1    1    2  502  501 -7.1677253816e+01 -7.4092723959e+01 -2.1991473437e+02 2.4287826344e+02 0.0000000000e+00 0.0000e+00 1.0000e+00
<mgrwt>
<rscale>  1 0.64689193E+03</rscale>
<asrwt>0</asrwt>
<pdfrwt beam="1">  1        3 0.10679744E+00 0.64689193E+03</pdfrwt>
<pdfrwt beam="2">  1       -3 0.20960293E+00 0.64689193E+03</pdfrwt>
<totfact> 0.25055086E-01</totfact>
</mgrwt>
</event>
<event>
 5      1 +1.8937969e-08 7.23874600e+02 7.81665300e-03 9.67725300e-02
       -1 -1    0    0    0  501 -0.0000000000e+00 +0.0000000000e+00 +1.7391836686e+03 1.7391836686e+03 5.0000000000e-03 0.0000e+00 1.0000e+00
        1 -1    0    0  502    0 +0.0000000000e+00 -0.0000000000e+00 -7.7486224978e+02 7.7486224979e+02 5.0000000000e-03 0.0000e+00 -1.0000e+00
  1000022  1    1    2    0    0 +3.8499629560e+02 +9.1289658055e+01 +8.3940180558e+02 1.1119061453e+03 6.1252260000e+02 0.0000e+00 1.0000e+00
  1000022  1    1    2    0    0 -3.2757354653e+02 -2.0683468050e+02 -4.2304606883e+02 8.3918825380e+02 6.1252260000e+02 0.0000e+00 -1.0000e+00
       21  1    1    2  502  501 -5.7422749069e+01 +1.1554502245e+02 +5.4796568204e+02 5.6295151924e+02 0.0000000000e+00 0.0000e+00 1.0000e+00
<mgrwt>
<rscale>  1 0.72387460E+03</rscale>
<asrwt>0</asrwt>
<pdfrwt beam="2">  1        1 0.11920958E+00 0.72387460E+03</pdfrwt>
<pdfrwt beam="1">  1       -1 0.26756672E+00 0.72387460E+03</pdfrwt>
<totfact> 0.13167292E+00</totfact>
</mgrwt>
</event>
<event>
 5      1 +1.8937969e-08 7.69726800e+02 7.81665300e-03 9.60490100e-02
        3 -1    0    0  502    0 +0.0000000000e+00 +0.0000000000e+00 +5.6686615453e+02 5.6686616249e+02 9.5000000000e-02 0.0000e+00 -1.0000e+00
       -3 -1    0    0    0  501 -0.0000000000e+00 -0.0000000000e+00 -1.5653103599e+03 1.5653103627e+03 9.5000000000e-02 0.0000e+00 -1.0000e+00
  1000022  1    1    2    0    0 +5.0522626921e+02 +1.6131817366e+01 -8.5389725018e+02 1.1661210349e+03 6.1252260000e+02 0.0000e+00 1.0000e+00
  1000022  1    1    2    0    0 -4.5064180302e+02 -4.0590600999e+01 +4.9376536314e+01 7.6311703517e+02 6.1252260000e+02 0.0000e+00 1.0000e+00
       21  1    1    2  502  501 -5.4584466189e+01 +2.4458783633e+01 -1.9392349147e+02 2.0293845517e+02 0.0000000000e+00 0.0000e+00 1.0000e+00
<mgrwt>
<rscale>  1 0.76972680E+03</rscale>
<asrwt>0</asrwt>
<pdfrwt beam="1">  1        3 0.87210179E-01 0.76972680E+03</pdfrwt>
<pdfrwt beam="2">  1       -3 0.24081698E+00 0.76972680E+03</pdfrwt>
<totfact> 0.25879044E-01</totfact>
</mgrwt>
</event>
<event>
 5      1 +1.8937969e-08 9.00972900e+02 7.81665300e-03 9.42436600e-02
        3 -1    0    0  502    0 +0.0000000000e+00 +0.0000000000e+00 +8.6392525892e+02 8.6392526415e+02 9.5000000000e-02 0.0000e+00 1.0000e+00
       -3 -1    0    0    0  501 -0.0000000000e+00 -0.0000000000e+00 -1.0908713756e+03 1.0908713797e+03 9.5000000000e-02 0.0000e+00 1.0000e+00
  1000022  1    1    2    0    0 +6.0249555407e+02 -2.5737261495e+02 -1.3769181483e+02 9.0740538183e+02 6.1252260000e+02 0.0000e+00 -1.0000e+00
  1000022  1    1    2    0    0 -5.6507721859e+02 +3.6154487815e+02 -1.5064569856e+02 9.2081758448e+02 6.1252260000e+02 0.0000e+00 -1.0000e+00
       21  1    1    2  502  501 -3.7418335479e+01 -1.0417226320e+02 +6.1391396747e+01 1.2657367754e+02 0.0000000000e+00 0.0000e+00 1.0000e+00
<mgrwt>
<rscale>  1 0.90097286E+03</rscale>
<asrwt>0</asrwt>
<pdfrwt beam="1">  1        3 0.13291158E+00 0.90097286E+03</pdfrwt>
<pdfrwt beam="2">  1       -3 0.16782637E+00 0.90097286E+03</pdfrwt>
<totfact> 0.26982939E-01</totfact>
</mgrwt>
</event>
<event>
 5      1 +1.8937969e-08 8.93396500e+02 7.81665300e-03 9.43387400e-02
        3 -1    0    0  502    0 -0.0000000000e+00 +0.0000000000e+00 +1.2164161154e+03 1.2164161191e+03 9.5000000000e-02 0.0000e+00 1.0000e+00
       21 -1    0    0  501  502 +0.0000000000e+00 -0.0000000000e+00 -7.0702424558e+02 7.0702424558e+02 0.0000000000e+00 0.0000e+00 1.0000e+00
  1000022  1    1    2    0    0 -6.5984708026e+02 +4.6628440851e+01 +4.5041343429e+02 1.0077839938e+03 6.1252260000e+02 0.0000e+00 -1.0000e+00
  1000022  1    1    2    0    0 +6.3217786486e+02 -5.0140003534e+01 +7.2522602001e+01 8.8465040332e+02 6.1252260000e+02 0.0000e+00 -1.0000e+00
        3  1    1    2  501    0 +2.7669215399e+01 +3.5115626824e+00 -1.3544166499e+01 3.1005967562e+01 9.5000000000e-02 0.0000e+00 -1.0000e+00
<mgrwt>
<rscale>  1 0.89339649E+03</rscale>
<asrwt>0</asrwt>
<pdfrwt beam="2">  1       21 0.10877296E+00 0.89339649E+03</pdfrwt>
<pdfrwt beam="1">  1        3 0.18714094E+00 0.89339649E+03</pdfrwt>
<totfact> 0.51311262E+00</totfact>
</mgrwt>
</event>
<event>
 5      1 +1.8937969e-08 8.77462100e+02 7.81665300e-03 9.45420200e-02
        1 -1    0    0  502    0 -0.0000000000e+00 +0.0000000000e+00 +1.1854295776e+03 1.1854295777e+03 5.0000000000e-03 0.0000e+00 1.0000e+00
       21 -1    0    0  501  502 +0.0000000000e+00 -0.0000000000e+00 -1.8517096441e+03 1.8517096441e+03 0.0000000000e+00 0.0000e+00 -1.0000e+00
  1000022  1    1    2    0    0 +9.1892434390e+01 -8.4766276237e+02 +4.3993246211e+02 1.1382885772e+03 6.1252260000e+02 0.0000e+00 -1.0000e+00
  1000022  1    1    2    0    0 +4.8706698319e+01 +3.8690352410e+02 -3.8088485659e+01 7.2711852382e+02 6.1252260000e+02 0.0000e+00 -1.0000e+00
        1  1    1    2  501    0 -1.4059913271e+02 +4.6075923827e+02 -1.0681240429e+03 1.1717321207e+03 5.0000000000e-03 0.0000e+00 -1.0000e+00
<mgrwt>
<rscale>  1 0.87746210E+03</rscale>
<asrwt>0</asrwt>
<pdfrwt beam="2">  1       21 0.28487841E+00 0.87746210E+03</pdfrwt>
<pdfrwt beam="1">  1        1 0.18237378E+00 0.87746210E+03</pdfrwt>
<totfact> 0.35675436E+00</totfact>
</mgrwt>
</event>
<event>
 5      1 +1.8937969e-08 1.00993600e+03 7.81665300e-03 9.29771300e-02
        2 -1    0    0  502    0 +0.0000000000e+00 +0.0000000000e+00 +1.3739459361e+03 1.3739459362e+03 2.5000000000e-03 0.0000e+00 -1.0000e+00
       -2 -1    0    0    0  501 -0.0000000000e+00 -0.0000000000e+00 -9.0988989434e+02 9.0988989434e+02 2.5000000000e-03 0.0000e+00 1.0000e+00
  1000022  1    1    2    0    0 -2.6654078959e+01 -8.0002040323e+02 -2.1834128887e+02 1.0313098174e+03 6.1252260000e+02 0.0000e+00 1.0000e+00
  1000022  1    1    2    0    0 +5.3393075335e+00 +8.0881540896e+02 +6.2743966518e+02 1.1929272161e+03 6.1252260000e+02 0.0000e+00 -1.0000e+00
       21  1    1    2  502  501 +2.1314771425e+01 -8.7950057315e+00 +5.4957665494e+01 5.9598796995e+01 0.0000000000e+00 0.0000e+00 -1.0000e+00
<mgrwt>
<rscale>  1 0.10099363E+04</rscale>
<asrwt>0</asrwt>
<pdfrwt beam="1">  1        2 0.21137630E+00 0.10099363E+04</pdfrwt>
<pdfrwt beam="2">  1       -2 0.13998306E+00 0.10099363E+04</pdfrwt>
<totfact> 0.53339193E+00</totfact>
</mgrwt>
</event>
<event>
 5      1 +1.8937969e-08 6.27680600e+02 7.81665300e-03 9.84958500e-02
       -3 -1    0    0    0  501 -0.0000000000e+00 +0.0000000000e+00 +7.6459598230e+02 7.6459598820e+02 9.5000000000e-02 0.0000e+00 1.0000e+00
        3 -1    0    0  502    0 +0.0000000000e+00 -0.0000000000e+00 -1.1330309734e+03 1.1330309774e+03 9.5000000000e-02 0.0000e+00 1.0000e+00
  1000022  1    1    2    0    0 -4.8762728663e+01 +4.3068719464e+01 +4.3522229486e+02 7.5421157493e+02 6.1252260000e+02 0.0000e+00 -1.0000e+00
  1000022  1    1    2    0    0 +8.8394950906e+01 -1.2134433937e+02 -8.3834655326e+02 1.0490695854e+03 6.1252260000e+02 0.0000e+00 -1.0000e+00
       21  1    1    2  502  501 -3.9632222243e+01 +7.8275619909e+01 +3.4689267304e+01 9.4345805302e+01 0.0000000000e+00 0.0000e+00 -1.0000e+00
<mgrwt>
<rscale>  1 0.62768060E+03</rscale>
<asrwt>0</asrwt>
<pdfrwt beam="2">  1        3 0.17431246E+00 0.62768060E+03</pdfrwt>
<pdfrwt beam="1">  1       -3 0.11763015E+00 0.62768060E+03</pdfrwt>
<totfact> 0.33671665E-01</totfact>
</mgrwt>
</event>
<event>
 5      1 +1.8937969e-08 1.12977600e+03 7.81665300e-03 9.17664600e-02
       -2 -1    0    0    0  501 -0.0000000000e+00 +0.0000000000e+00 +1.0678779017e+03 1.0678779017e+03 2.5000000000e-03 0.0000e+00 1.0000e+00
        2 -1    0    0  502    0 +0.0000000000e+00 -0.0000000000e+00 -1.4310484378e+03 1.4310484378e+03 2.5000000000e-03 0.0000e+00 -1.0000e+00
  1000022  1    1    2    0    0 +8.1556481338e+02 -5.0275923432e+02 -6.5696366995e+02 1.3132775836e+03 6.1252260000e+02 0.0000e+00 -1.0000e+00
  1000022  1    1    2    0    0 -7.8162611682e+02 +5.0427791597e+02 +2.9312665958e+02 1.1516695607e+03 6.1252260000e+02 0.0000e+00 1.0000e+00
       21  1    1    2  502  501 -3.3938696563e+01 -1.5186816499e+00 +6.6647429538e-01 3.3979195199e+01 0.0000000000e+00 0.0000e+00 1.0000e+00
<mgrwt>
<rscale>  1 0.11297762E+04</rscale>
<asrwt>0</asrwt>
<pdfrwt beam="2">  1        2 0.22016130E+00 0.11297762E+04</pdfrwt>
<pdfrwt beam="1">  1       -2 0.16428891E+00 0.11297762E+04</pdfrwt>
<totfact> 0.31831276E+00</totfact>
</mgrwt>
</event>
<event>
 5      1 +1.8937969e-08 6.60055900e+02 7.81665300e-03 9.78809100e-02
       -1 -1    0    0    0  501 -0.0000000000e+00 +0.0000000000e+00 +8.1635913020e+02 8.1635913021e+02 5.0000000000e-03 0.0000e+00 1.0000e+00
        1 -1    0    0  502    0 +0.0000000000e+00 -0.0000000000e+00 -1.2679855205e+03 1.2679855206e+03 5.0000000000e-03 0.0000e+00 -1.0000e+00
  1000022  1    1    2    0    0 +6.3231432210e+01 -2.0861488070e+02 -8.7482588002e+02 1.0899645124e+03 6.1252260000e+02 0.0000e+00 -1.0000e+00
  1000022  1    1    2    0    0 -8.9692256032e+01 +2.3382482224e+02 +5.5121882651e+02 8.6124611958e+02 6.1252260000e+02 0.0000e+00 1.0000e+00
       21  1    1    2  502  501 +2.6460823821e+01 -2.5209941535e+01 -1.2801933683e+02 1.3313401877e+02 0.0000000000e+00 0.0000e+00 -1.0000e+00
<mgrwt>
<rscale>  1 0.66005594E+03</rscale>
<asrwt>0</asrwt>
<pdfrwt beam="2">  1        1 0.19507470E+00 0.66005594E+03</pdfrwt>
<pdfrwt beam="1">  1       -1 0.12559371E+00 0.66005594E+03</pdfrwt>
<totfact> 0.55624368E+00</totfact>
</mgrwt>
</event>
<event>
 5      1 +1.8937969e-08 8.09051200e+02 7.81665300e-03 9.54700800e-02
        3 -1    0    0  502    0 +0.0000000000e+00 +0.0000000000e+00 +1.9036932254e+03 1.9036932278e+03 9.5000000000e-02 0.0000e+00 1.0000e+00
       -3 -1    0    0    0  501 -0.0000000000e+00 -0.0000000000e+00 -4.5707072054e+02 4.5707073041e+02 9.5000000000e-02 0.0000e+00 1.0000e+00
  1000022  1    1    2    0    0 -3.2697153750e+02 -4.6645264515e+02 +8.8833536207e+02 1.2201688848e+03 6.1252260000e+02 0.0000e+00 -1.0000e+00
  1000022  1    1    2    0    0 +2.8281518737e+02 +3.9192380319e+02 +6.4921056855e+02 1.0150108352e+03 6.1252260000e+02 0.0000e+00 -1.0000e+00
       21  1    1    2  502  501 +4.4156350131e+01 +7.4528841967e+01 -9.0923425717e+01 1.2558423821e+02 0.0000000000e+00 0.0000e+00 1.0000e+00
<mgrwt>
<rscale>  1 0.80905115E+03</rscale>
<asrwt>0</asrwt>
<pdfrwt beam="1">  1        3 0.29287588E+00 0.80905115E+03</pdfrwt>
<pdfrwt beam="2">  1       -3 0.70318573E-01 0.80905115E+03</pdfrwt>
<totfact> 0.21493286E-01</totfact>
</mgrwt>
</event>
<event>
 5      1 +1.8937969e-08 8.55736000e+02 7.81665300e-03 9.48267100e-02
        1 -1    0    0  502    0 +0.0000000000e+00 +0.0000000000e+00 +1.9779656260e+03 1.9779656260e+03 5.0000000000e-03 0.0000e+00 1.0000e+00
       -1 -1    0    0    0  501 -0.0000000000e+00 -0.0000000000e+00 -3.8928429492e+02 3.8928429496e+02 5.0000000000e-03 0.0000e+00 1.0000e+00
  1000022  1    1    2    0    0 -4.8071142803e+02 +3.3307549176e+02 +8.6271627307e+02 1.2089193784e+03 6.1252260000e+02 0.0000e+00 -1.0000e+00
  1000022  1    1    2    0    0 +4.9086989592e+02 -3.6713534659e+02 +7.0456696373e+02 1.1168438384e+03 6.1252260000e+02 0.0000e+00 -1.0000e+00
       21  1    1    2  502  501 -1.0158467890e+01 +3.4059854828e+01 +2.1398094250e+01 4.1486704115e+01 0.0000000000e+00 0.0000e+00 -1.0000e+00
<mgrwt>
<rscale>  1 0.85573595E+03</rscale>
<asrwt>0</asrwt>
<pdfrwt beam="1">  1        1 0.30430241E+00 0.85573595E+03</pdfrwt>
<pdfrwt beam="2">  1       -1 0.59889891E-01 0.85573595E+03</pdfrwt>
<totfact> 0.89785659E+00</totfact>
</mgrwt>
</event>
<event>
 5      1 +1.8937969e-08 9.66077500e+02 7.81665300e-03 9.34655300e-02
       -2 -1    0    0    0  501 -0.0000000000e+00 +0.0000000000e+00 +7.0044695684e+02 7.0044695685e+02 2.5000000000e-03 0.0000e+00 1.0000e+00
        2 -1    0    0  502    0 +0.0000000000e+00 -0.0000000000e+00 -1.6327899445e+03 1.6327899445e+03 2.5000000000e-03 0.0000e+00 -1.0000e+00
  1000022  1    1    2    0    0 -3.5519872246e+02 +6.4716749851e+02 -2.7107086569e+02 9.9682257865e+02 6.1252260000e+02 0.0000e+00 -1.0000e+00
  1000022  1    1    2    0    0 +3.1039640408e+02 -6.9182100176e+02 -3.7688635964e+02 1.0450787003e+03 6.1252260000e+02 0.0000e+00 1.0000e+00
       21  1    1    2  502  501 +4.4802318377e+01 +4.4653503257e+01 -2.8438576232e+02 2.9133562242e+02 0.0000000000e+00 0.0000e+00 -1.0000e+00
<mgrwt>
<rscale>  1 0.96607746E+03</rscale>
<asrwt>0</asrwt>
<pdfrwt beam="2">  1        2 0.25119845E+00 0.96607746E+03</pdfrwt>
<pdfrwt beam="1">  1       -2 0.10776107E+00 0.96607746E+03</pdfrwt>
<totfact> 0.73796604E+00</totfact>
</mgrwt>
</event>
<event>
 5      1 +1.8937969e-08 8.47231700e+02 7.81665300e-03 9.49406000e-02
        2 -1    0    0  502    0 +0.0000000000e+00 +0.0000000000e+00 +1.5831197780e+03 1.5831197780e+03 2.5000000000e-03 0.0000e+00 -1.0000e+00
       -2 -1    0    0    0  501 -0.0000000000e+00 -0.0000000000e+00 -8.8450378030e+02 8.8450378030e+02 2.5000000000e-03 0.0000e+00 1.0000e+00
  1000022  1    1    2    0    0 -5.0419614716e+02 +3.0095673535e+02 +1.1917851945e+03 1.4629848245e+03 6.1252260000e+02 0.0000e+00 -1.0000e+00
  1000022  1    1    2    0    0 +4.8531313085e+02 -3.1032477631e+02 -4.4339661903e+02 9.5058655526e+02 6.1252260000e+02 0.0000e+00 1.0000e+00
       21  1    1    2  502  501 +1.8883016311e+01 +9.3680409602e+00 -4.9772577830e+01 5.4052178497e+01 0.0000000000e+00 0.0000e+00 -1.0000e+00
<mgrwt>
<rscale>  1 0.84723173E+03</rscale>
<asrwt>0</asrwt>
<pdfrwt beam="1">  1        2 0.24355688E+00 0.84723173E+03</pdfrwt>
<pdfrwt beam="2">  1       -2 0.13607751E+00 0.84723173E+03</pdfrwt>
<totfact> 0.44628798E+00</totfact>
</mgrwt>
</event>
<event>
 5      1 +1.8937969e-08 6.86431800e+02 7.81665300e-03 9.74072100e-02
        3 -1    0    0  502    0 +0.0000000000e+00 +0.0000000000e+00 +1.2491955906e+03 1.2491955942e+03 9.5000000000e-02 0.0000e+00 1.0000e+00
       -3 -1    0    0    0  501 -0.0000000000e+00 -0.0000000000e+00 -8.2239503051e+02 8.2239503600e+02 9.5000000000e-02 0.0000e+00 1.0000e+00
  1000022  1    1    2    0    0 +3.7510343636e+01 -3.3898544795e+02 -4.3246851056e+02 8.2372999699e+02 6.1252260000e+02 0.0000e+00 -1.0000e+00
  1000022  1    1    2    0    0 +1.4711902403e+02 +1.8608493867e+02 +7.0072524169e+02 9.6045375291e+02 6.1252260000e+02 0.0000e+00 -1.0000e+00
       21  1    1    2  502  501 -1.8462936767e+02 +1.5290050928e+02 +1.5854382895e+02 2.8740688030e+02 0.0000000000e+00 0.0000e+00 -1.0000e+00
<mgrwt>
<rscale>  1 0.68643184E+03</rscale>
<asrwt>0</asrwt>
<pdfrwt beam="1">  1        3 0.19218394E+00 0.68643184E+03</pdfrwt>
<pdfrwt beam="2">  1       -3 0.12652231E+00 0.68643184E+03</pdfrwt>
<totfact> 0.21368305E-01</totfact>
</mgrwt>
</event>
<event>
 5      1 +1.8937969e-08 8.20568800e+02 7.81665300e-03 9.53071300e-02
        2 -1    0    0  502    0 +0.0000000000e+00 +0.0000000000e+00 +2.2010835546e+03 2.2010835546e+03 2.5000000000e-03 0.0000e+00 -1.0000e+00
       -2 -1    0    0    0  501 -0.0000000000e+00 -0.0000000000e+00 -5.6422911312e+02 5.6422911313e+02 2.5000000000e-03 0.0000e+00 1.0000e+00
  1000022  1    1    2    0    0 -6.7241134453e+01 -5.4392165289e+02 +8.0038225293e+02 1.1472435753e+03 6.1252260000e+02 0.0000e+00 -1.0000e+00
  1000022  1    1    2    0    0 +2.5269180707e+02 +4.9899209823e+02 +1.0458055885e+03 1.3348181628e+03 6.1252260000e+02 0.0000e+00 1.0000e+00
       21  1    1    2  502  501 -1.8545067261e+02 +4.4929554655e+01 -2.0933339989e+02 2.8325092968e+02 0.0000000000e+00 0.0000e+00 1.0000e+00
<mgrwt>
<rscale>  1 0.82056885E+03</rscale>
<asrwt>0</asrwt>
<pdfrwt beam="1">  1        2 0.33862824E+00 0.82056885E+03</pdfrwt>
<pdfrwt beam="2">  1       -2 0.86804478E-01 0.82056885E+03</pdfrwt>
<totfact> 0.60963572E+00</totfact>
</mgrwt>
</event>
<event>
 5      1 +1.8937969e-08 6.67809000e+02 7.81665300e-03 9.77392400e-02
       -3 -1    0    0    0  501 -0.0000000000e+00 +0.0000000000e+00 +9.1198034547e+02 9.1198035042e+02 9.5000000000e-02 0.0000e+00 -1.0000e+00
        3 -1    0    0  502    0 +0.0000000000e+00 -0.0000000000e+00 -9.9752089427e+02 9.9752089880e+02 9.5000000000e-02 0.0000e+00 -1.0000e+00
  1000022  1    1    2    0    0 -3.1349088974e+02 +5.1969445265e+00 +4.3666175935e+02 8.1496071916e+02 6.1252260000e+02 0.0000e+00 1.0000e+00
  1000022  1    1    2    0    0 +2.5165705129e+02 -4.9252195634e+01 -6.6061565086e+02 9.3667178025e+02 6.1252260000e+02 0.0000e+00 1.0000e+00
       21  1    1    2  502  501 +6.1833838451e+01 +4.4055251107e+01 +1.3841334270e+02 1.5786874981e+02 0.0000000000e+00 0.0000e+00 -1.0000e+00
<mgrwt>
<rscale>  1 0.66780898E+03</rscale>
<asrwt>0</asrwt>
<pdfrwt beam="2">  1        3 0.15346475E+00 0.66780898E+03</pdfrwt>
<pdfrwt beam="1">  1       -3 0.14030467E+00 0.66780898E+03</pdfrwt>
<totfact> 0.30393505E-01</totfact>
</mgrwt>
</event>
<event>
 5      1 +1.8937969e-08 8.15805900e+02 7.81665300e-03 9.53741600e-02
       -3 -1    0    0    0  501 -0.0000000000e+00 +0.0000000000e+00 +1.3208733361e+03 1.3208733395e+03 9.5000000000e-02 0.0000e+00 1.0000e+00
        3 -1    0    0  502    0 +0.0000000000e+00 -0.0000000000e+00 -7.8848663220e+02 7.8848663792e+02 9.5000000000e-02 0.0000e+00 1.0000e+00
  1000022  1    1    2    0    0 -1.1227367115e+02 +5.3155594463e+02 -2.1486604935e+02 8.4646822396e+02 6.1252260000e+02 0.0000e+00 -1.0000e+00
  1000022  1    1    2    0    0 +8.1574044860e+01 -5.2408382462e+02 +3.8113623071e+02 8.9541439674e+02 6.1252260000e+02 0.0000e+00 -1.0000e+00
       21  1    1    2  502  501 +3.0699626291e+01 -7.4721200039e+00 +3.6611652258e+02 3.6747735677e+02 0.0000000000e+00 0.0000e+00 -1.0000e+00
<mgrwt>
<rscale>  1 0.81580590E+03</rscale>
<asrwt>0</asrwt>
<pdfrwt beam="2">  1        3 0.12130564E+00 0.81580590E+03</pdfrwt>
<pdfrwt beam="1">  1       -3 0.20321128E+00 0.81580590E+03</pdfrwt>
<totfact> 0.19889666E-01</totfact>
</mgrwt>
</event>
<event>
 5      1 +1.8937969e-08 1.04922500e+03 7.81665300e-03 9.25614500e-02
       21 -1    0    0  501  502 +0.0000000000e+00 +0.0000000000e+00 +1.0142053053e+03 1.0142053053e+03 0.0000000000e+00 0.0000e+00 1.0000e+00
        2 -1    0    0  502    0 -0.0000000000e+00 -0.0000000000e+00 -3.0772902648e+03 3.0772902648e+03 2.5000000000e-03 0.0000e+00 -1.0000e+00
  1000022  1    1    2    0    0 -8.3663156147e+02 +1.2197526655e+02 -2.6081130810e+03 2.8093180870e+03 6.1252260000e+02 0.0000e+00 -1.0000e+00
  1000022  1    1    2    0    0 +8.9366169936e+02 -1.5528446061e+02 +5.1599510443e+02 1.2100328012e+03 6.1252260000e+02 0.0000e+00 1.0000e+00
        2  1    1    2  501    0 -5.7030137887e+01 +3.3309194057e+01 +2.9033017019e+01 7.2144681853e+01 2.5000000000e-03 0.0000e+00 -1.0000e+00
<mgrwt>
<rscale>  1 0.10492248E+04</rscale>
<asrwt>0</asrwt>
<pdfrwt beam="1">  1       21 0.15603159E+00 0.10492248E+04</pdfrwt>
<pdfrwt beam="2">  1        2 0.47342927E+00 0.10492248E+04</pdfrwt>
<totfact> 0.41778578E+00</totfact>
</mgrwt>
</event>
<event>
 5      1 +1.8937969e-08 8.55811600e+02 7.81665300e-03 9.48257000e-02
       -3 -1    0    0    0  501 -0.0000000000e+00 +0.0000000000e+00 +5.0991933535e+02 5.0991934420e+02 9.5000000000e-02 0.0000e+00 1.0000e+00
        3 -1    0    0  502    0 +0.0000000000e+00 -0.0000000000e+00 -1.9638723148e+03 1.9638723171e+03 9.5000000000e-02 0.0000e+00 1.0000e+00
  1000022  1    1    2    0    0 -1.1541127351e+02 +6.1229204453e+02 -4.6464030386e+02 9.8959378400e+02 6.1252260000e+02 0.0000e+00 -1.0000e+00
  1000022  1    1    2    0    0 +1.5184878071e+02 -5.5313412856e+02 -4.7311807131e+02 9.6334835926e+02 6.1252260000e+02 0.0000e+00 -1.0000e+00
       21  1    1    2  502  501 -3.6437507202e+01 -5.9157915977e+01 -5.1619460424e+02 5.2084951800e+02 0.0000000000e+00 0.0000e+00 -1.0000e+00
<mgrwt>
<rscale>  1 0.85581163E+03</rscale>
<asrwt>0</asrwt>
<pdfrwt beam="2">  1        3 0.30213420E+00 0.85581163E+03</pdfrwt>
<pdfrwt beam="1">  1       -3 0.78449130E-01 0.85581163E+03</pdfrwt>
<totfact> 0.14942310E-01</totfact>
</mgrwt>
</event>
<event>
 5      1 +1.8937969e-08 7.09666100e+02 7.81665300e-03 9.70084300e-02
        3 -1    0    0  502    0 +0.0000000000e+00 +0.0000000000e+00 +3.0170502394e+02 3.0170503890e+02 9.5000000000e-02 0.0000e+00 -1.0000e+00
       -3 -1    0    0    0  501 -0.0000000000e+00 -0.0000000000e+00 -3.5980433928e+03 3.5980433941e+03 9.5000000000e-02 0.0000e+00 -1.0000e+00
  1000022  1    1    2    0    0 +2.9556164563e+02 +3.8065790205e+02 -2.0583438552e+03 2.2009589924e+03 6.1252260000e+02 0.0000e+00 1.0000e+00
  1000022  1    1    2    0    0 -8.8292210385e+01 -3.2107337673e+02 -3.4077116582e+02 7.7601066399e+02 6.1252260000e+02 0.0000e+00 1.0000e+00
       21  1    1    2  502  501 -2.0726943525e+02 -5.9584525318e+01 -8.9722334788e+02 9.2277877654e+02 0.0000000000e+00 0.0000e+00 1.0000e+00
<mgrwt>
<rscale>  1 0.70966607E+03</rscale>
<asrwt>0</asrwt>
<pdfrwt beam="1">  1        3 0.46416161E-01 0.70966607E+03</pdfrwt>
<pdfrwt beam="2">  1       -3 0.55354511E+00 0.70966607E+03</pdfrwt>
<totfact> 0.20365643E-02</totfact>
</mgrwt>
</event>
<event>
 5      1 +1.8937969e-08 8.04116600e+02 7.81665300e-03 9.55407700e-02
       -1 -1    0    0    0  501 -0.0000000000e+00 +0.0000000000e+00 +3.5763323291e+03 3.5763323291e+03 5.0000000000e-03 0.0000e+00 1.0000e+00
        1 -1    0    0  502    0 +0.0000000000e+00 -0.0000000000e+00 -1.4177715906e+03 1.4177715906e+03 5.0000000000e-03 0.0000e+00 -1.0000e+00
  1000022  1    1    2    0    0 +3.7939881230e+02 -4.0762840008e+02 +2.6181780183e+03 2.7459323449e+03 6.1252260000e+02 0.0000e+00 1.0000e+00
  1000022  1    1    2    0    0 -6.3879795201e+02 -1.6721098146e+02 +5.5178628606e+02 1.0562548825e+03 6.1252260000e+02 0.0000e+00 -1.0000e+00
       21  1    1    2  502  501 +2.5939913971e+02 +5.7483938154e+02 -1.0114035660e+03 1.1919166923e+03 0.0000000000e+00 0.0000e+00 -1.0000e+00
<mgrwt>
<rscale>  1 0.80411664E+03</rscale>
<asrwt>0</asrwt>
<pdfrwt beam="2">  1        1 0.21811871E+00 0.80411664E+03</pdfrwt>
<pdfrwt beam="1">  1       -1 0.55020497E+00 0.80411664E+03</pdfrwt>
<totfact> 0.58683439E-03</totfact>
</mgrwt>
</event>
<event>
 5      1 +1.8937969e-08 6.55425100e+02 7.81665300e-03 9.79665200e-02
        2 -1    0    0  502    0 +0.0000000000e+00 +0.0000000000e+00 +6.0206347709e+02 6.0206347709e+02 2.5000000000e-03 0.0000e+00 -1.0000e+00
       -2 -1    0    0    0  501 -0.0000000000e+00 -0.0000000000e+00 -7.5511019889e+02 7.5511019889e+02 2.5000000000e-03 0.0000e+00 1.0000e+00
  1000022  1    1    2    0    0 +1.1748587473e+02 +2.0137666965e+02 +3.0327392450e+01 6.5609388054e+02 6.1252260000e+02 0.0000e+00 -1.0000e+00
  1000022  1    1    2    0    0 -1.3550020126e+02 -1.9065828562e+02 -1.7912602486e+02 6.7969180862e+02 6.1252260000e+02 0.0000e+00 1.0000e+00
       21  1    1    2  502  501 +1.8014326531e+01 -1.0718384033e+01 -4.2480893964e+00 2.1387986819e+01 0.0000000000e+00 0.0000e+00 1.0000e+00
<mgrwt>
<rscale>  1 0.65542512E+03</rscale>
<asrwt>0</asrwt>
<pdfrwt beam="1">  1        2 0.92625151E-01 0.65542512E+03</pdfrwt>
<pdfrwt beam="2">  1       -2 0.11617080E+00 0.65542512E+03</pdfrwt>
<totfact> 0.29015008E+01</totfact>
</mgrwt>
</event>
<event>
 5      1 +1.8937969e-08 7.95595700e+02 7.81665300e-03 9.56641400e-02
        3 -1    0    0  502    0 +0.0000000000e+00 +0.0000000000e+00 +7.4719942625e+02 7.4719943229e+02 9.5000000000e-02 0.0000e+00 1.0000e+00
       -3 -1    0    0    0  501 -0.0000000000e+00 -0.0000000000e+00 -9.0100672122e+02 9.0100672623e+02 9.5000000000e-02 0.0000e+00 1.0000e+00
  1000022  1    1    2    0    0 +3.6777554770e+02 +3.7173130830e+02 -2.0163481024e+02 8.3023102283e+02 6.1252260000e+02 0.0000e+00 -1.0000e+00
  1000022  1    1    2    0    0 -3.5310448274e+02 -3.4961615875e+02 +5.4491910629e+01 7.9061212869e+02 6.1252260000e+02 0.0000e+00 -1.0000e+00
       21  1    1    2  502  501 -1.4671064962e+01 -2.2115149544e+01 -6.6643953595e+00 2.7363006998e+01 0.0000000000e+00 0.0000e+00 1.0000e+00
<mgrwt>
<rscale>  1 0.79559573E+03</rscale>
<asrwt>0</asrwt>
<pdfrwt beam="1">  1        3 0.11495376E+00 0.79559573E+03</pdfrwt>
<pdfrwt beam="2">  1       -3 0.13861642E+00 0.79559573E+03</pdfrwt>
<totfact> 0.64147934E-01</totfact>
</mgrwt>
</event>
<event>
 5      1 +1.8937969e-08 6.89999500e+02 7.81665300e-03 9.73448900e-02
        3 -1    0    0  502    0 +0.0000000000e+00 +0.0000000000e+00 +2.2438767107e+02 2.2438769119e+02 9.5000000000e-02 0.0000e+00 1.0000e+00
       -3 -1    0    0    0  501 -0.0000000000e+00 -0.0000000000e+00 -3.6055277971e+03 3.6055277984e+03 9.5000000000e-02 0.0000e+00 1.0000e+00
  1000022  1    1    2    0    0 -2.7157138900e+02 -1.6441598605e+02 -2.6757631519e+03 2.7632727003e+03 6.1252260000e+02 0.0000e+00 -1.0000e+00
  1000022  1    1    2    0    0 +2.2952424596e+02 +2.2201244359e+02 -5.0993336543e+02 8.5859587542e+02 6.1252260000e+02 0.0000e+00 -1.0000e+00
       21  1    1    2  502  501 +4.2047143045e+01 -5.7596457539e+01 -1.9544360872e+02 2.0804691382e+02 0.0000000000e+00 0.0000e+00 1.0000e+00
<mgrwt>
<rscale>  1 0.68999955E+03</rscale>
<asrwt>0</asrwt>
<pdfrwt beam="1">  1        3 0.34521184E-01 0.68999955E+03</pdfrwt>
<pdfrwt beam="2">  1       -3 0.55469654E+00 0.68999955E+03</pdfrwt>
<totfact> 0.36307093E-02</totfact>
</mgrwt>
</event>
<event>
 5      1 +1.8937969e-08 8.80644100e+02 7.81665300e-03 9.45010600e-02
        3 -1    0    0  502    0 +0.0000000000e+00 +0.0000000000e+00 +2.8066883332e+02 2.8066884940e+02 9.5000000000e-02 0.0000e+00 -1.0000e+00
       -3 -1    0    0    0  501 -0.0000000000e+00 -0.0000000000e+00 -3.1930290395e+03 3.1930290409e+03 9.5000000000e-02 0.0000e+00 -1.0000e+00
  1000022  1    1    2    0    0 +5.1927586952e+02 +3.9796027868e+02 -9.7060360864e+02 1.3210886089e+03 6.1252260000e+02 0.0000e+00 1.0000e+00
  1000022  1    1    2    0    0 -4.4727572149e+02 -3.9801016743e+02 -1.7692414512e+03 1.9656721274e+03 6.1252260000e+02 0.0000e+00 1.0000e+00
       21  1    1    2  502  501 -7.2000148025e+01 +4.9888755705e-02 -1.7251514637e+02 1.8693715396e+02 0.0000000000e+00 0.0000e+00 -1.0000e+00
<mgrwt>
<rscale>  1 0.88064408E+03</rscale>
<asrwt>0</asrwt>
<pdfrwt beam="1">  1        3 0.43179824E-01 0.88064408E+03</pdfrwt>
<pdfrwt beam="2">  1       -3 0.49123521E+00 0.88064408E+03</pdfrwt>
<totfact> 0.48445948E-02</totfact>
</mgrwt>
</event>
<event>
 5      1 +1.8937969e-08 1.05180600e+03 7.81665300e-03 9.30188700e-02
        2 -1    0    0  502    0 -0.0000000000e+00 +0.0000000000e+00 +3.1765199300e+03 3.1765199300e+03 2.5000000000e-03 0.0000e+00 1.0000e+00
       21 -1    0    0  501  502 +0.0000000000e+00 -0.0000000000e+00 -1.1582106882e+03 1.1582106882e+03 0.0000000000e+00 0.0000e+00 1.0000e+00
  1000022  1    1    2    0    0 +4.8978258547e+02 -4.0033295765e+02 -1.7194444952e+02 8.9716346740e+02 6.1252260000e+02 0.0000e+00 1.0000e+00
  1000022  1    1    2    0    0 +3.6728586894e+02 +6.7267150621e+02 +2.3293874395e+03 2.5275710957e+03 6.1252260000e+02 0.0000e+00 1.0000e+00
        2  1    1    2  501    0 -8.5706845441e+02 -2.7233854857e+02 -1.3913374819e+02 9.0999605520e+02 2.5000000000e-03 0.0000e+00 1.0000e+00
<mgrwt>
<rscale>  1 0.10060933E+04</rscale>
<asrwt>0</asrwt>
<pdfrwt beam="2">  1       21 0.17818626E+00 0.10518064E+04</pdfrwt>
<pdfrwt beam="1">  1        2 0.48869537E+00 0.10518064E+04</pdfrwt>
<totfact> 0.24539635E+00</totfact>
</mgrwt>
</event>
<event>
 5      1 +1.8937969e-08 8.26168200e+02 7.81665300e-03 9.52289300e-02
       -3 -1    0    0    0  501 -0.0000000000e+00 +0.0000000000e+00 +2.8252185910e+02 2.8252187507e+02 9.5000000000e-02 0.0000e+00 -1.0000e+00
       21 -1    0    0  501  502 +0.0000000000e+00 -0.0000000000e+00 -2.8009496260e+03 2.8009496260e+03 0.0000000000e+00 0.0000e+00 -1.0000e+00
  1000022  1    1    2    0    0 -3.9564807414e+02 -3.8370738852e+02 -1.6354621592e+03 1.8313080485e+03 6.1252260000e+02 0.0000e+00 1.0000e+00
  1000022  1    1    2    0    0 +3.7292307259e+02 +4.1321066671e+02 -7.5989984353e+02 1.1235863923e+03 6.1252260000e+02 0.0000e+00 1.0000e+00
       -3  1    1    2    0  502 +2.2725001553e+01 -2.9503278195e+01 -1.2306576417e+02 1.2857706038e+02 9.5000000000e-02 0.0000e+00 1.0000e+00
<mgrwt>
<rscale>  1 0.82616819E+03</rscale>
<asrwt>0</asrwt>
<pdfrwt beam="2">  1       21 0.43091532E+00 0.82616819E+03</pdfrwt>
<pdfrwt beam="1">  1       -3 0.43464904E-01 0.82616819E+03</pdfrwt>
<totfact> 0.96965515E-01</totfact>
</mgrwt>
</event>
<event>
 5      1 +1.8937969e-08 8.70425600e+02 7.81665300e-03 9.46332500e-02
       21 -1    0    0  501  502 +0.0000000000e+00 +0.0000000000e+00 +9.8972797980e+02 9.8972797980e+02 0.0000000000e+00 0.0000e+00 1.0000e+00
       -3 -1    0    0    0  501 -0.0000000000e+00 -0.0000000000e+00 -1.3007283202e+03 1.3007283237e+03 9.5000000000e-02 0.0000e+00 -1.0000e+00
  1000022  1    1    2    0    0 -2.8717154910e+01 -5.6351214935e+02 +7.0071259496e+01 8.3574190655e+02 6.1252260000e+02 0.0000e+00 1.0000e+00
  1000022  1    1    2    0    0 +4.7440974955e+02 +5.3535858649e+02 -3.5818160753e+02 1.0075472327e+03 6.1252260000e+02 0.0000e+00 1.0000e+00
       -3  1    1    2    0  502 -4.4569259464e+02 +2.8153562863e+01 -2.2889992387e+01 4.4716716426e+02 9.5000000000e-02 0.0000e+00 1.0000e+00
<mgrwt>
<rscale>  1 0.87042564E+03</rscale>
<asrwt>0</asrwt>
<pdfrwt beam="1">  1       21 0.15226584E+00 0.87042564E+03</pdfrwt>
<pdfrwt beam="2">  1       -3 0.20011205E+00 0.87042564E+03</pdfrwt>
<totfact> 0.17360276E+00</totfact>
</mgrwt>
</event>
<event>
 5      1 +1.8937969e-08 6.63351600e+02 7.81665300e-03 9.78204300e-02
        1 -1    0    0  502    0 +0.0000000000e+00 +0.0000000000e+00 +7.9998323363e+02 7.9998323364e+02 5.0000000000e-03 0.0000e+00 -1.0000e+00
       -1 -1    0    0    0  501 -0.0000000000e+00 -0.0000000000e+00 -1.9253277349e+03 1.9253277349e+03 5.0000000000e-03 0.0000e+00 1.0000e+00
  1000022  1    1    2    0    0 +7.2347302511e+01 +4.6428965511e+02 -1.1407203091e+03 1.3773981904e+03 6.1252260000e+02 0.0000e+00 1.0000e+00
  1000022  1    1    2    0    0 -4.1152192333e+01 +1.1940125727e+02 -2.8892787504e+02 6.8892192276e+02 6.1252260000e+02 0.0000e+00 1.0000e+00
       21  1    1    2  502  501 -3.1195110178e+01 -5.8369091239e+02 +3.0430368280e+02 6.5899085537e+02 0.0000000000e+00 0.0000e+00 1.0000e+00
<mgrwt>
<rscale>  1 0.66335162E+03</rscale>
<asrwt>0</asrwt>
<pdfrwt beam="1">  1        1 0.12307434E+00 0.66335162E+03</pdfrwt>
<pdfrwt beam="2">  1       -1 0.29620427E+00 0.66335162E+03</pdfrwt>
<totfact> 0.83266263E-01</totfact>
</mgrwt>
</event>
<event>
 5      1 +1.8937969e-08 6.56184900e+02 7.81665300e-03 9.79524200e-02
        3 -1    0    0  502    0 +0.0000000000e+00 +0.0000000000e+00 +3.4968476905e+03 3.4968476918e+03 9.5000000000e-02 0.0000e+00 -1.0000e+00
       -3 -1    0    0    0  501 -0.0000000000e+00 -0.0000000000e+00 -2.3861074214e+02 2.3861076105e+02 9.5000000000e-02 0.0000e+00 -1.0000e+00
  1000022  1    1    2    0    0 -6.9297875288e+01 +2.1071137155e+02 +2.5850938774e+03 2.6659136835e+03 6.1252260000e+02 0.0000e+00 1.0000e+00
  1000022  1    1    2    0    0 -1.1980315257e+01 -3.0996946018e+02 +4.8024217566e+02 8.3787891547e+02 6.1252260000e+02 0.0000e+00 1.0000e+00
       21  1    1    2  502  501 +8.1278190545e+01 +9.9258088627e+01 +1.9290089528e+02 2.3166585380e+02 0.0000000000e+00 0.0000e+00 1.0000e+00
<mgrwt>
<rscale>  1 0.65618485E+03</rscale>
<asrwt>0</asrwt>
<pdfrwt beam="1">  1        3 0.53797652E+00 0.65618485E+03</pdfrwt>
<pdfrwt beam="2">  1       -3 0.36709350E-01 0.65618485E+03</pdfrwt>
<totfact> 0.45928765E-02</totfact>
</mgrwt>
</event>
<event>
 5      1 +1.8937969e-08 6.65541600e+02 7.81665300e-03 9.77804600e-02
       -3 -1    0    0    0  501 -0.0000000000e+00 +0.0000000000e+00 +8.8572408425e+02 8.8572408935e+02 9.5000000000e-02 0.0000e+00 -1.0000e+00
        3 -1    0    0  502    0 +0.0000000000e+00 -0.0000000000e+00 -1.5655200125e+03 1.5655200154e+03 9.5000000000e-02 0.0000e+00 -1.0000e+00
  1000022  1    1    2    0    0 +2.2834875072e+02 -1.0287155485e+02 -1.1846898160e+03 1.3569817996e+03 6.1252260000e+02 0.0000e+00 1.0000e+00
  1000022  1    1    2    0    0 -2.9866317868e+02 +8.1530168651e+01 +1.1302234808e+02 6.9556081645e+02 6.1252260000e+02 0.0000e+00 1.0000e+00
       21  1    1    2  502  501 +7.0314427963e+01 +2.1341386203e+01 +3.9187153963e+02 3.9870148873e+02 0.0000000000e+00 0.0000e+00 -1.0000e+00
<mgrwt>
<rscale>  1 0.66554156E+03</rscale>
<asrwt>0</asrwt>
<pdfrwt beam="2">  1        3 0.24084923E+00 0.66554156E+03</pdfrwt>
<pdfrwt beam="1">  1       -3 0.13626524E+00 0.66554156E+03</pdfrwt>
<totfact> 0.90539998E-02</totfact>
</mgrwt>
</event>
<event>
 5      1 +1.8937969e-08 8.68180400e+02 7.81665300e-03 9.46625600e-02
        3 -1    0    0  502    0 -0.0000000000e+00 +0.0000000000e+00 +1.5350879596e+03 1.5350879625e+03 9.5000000000e-02 0.0000e+00 -1.0000e+00
       21 -1    0    0  501  502 +0.0000000000e+00 -0.0000000000e+00 -5.7695679517e+02 5.7695679517e+02 0.0000000000e+00 0.0000e+00 -1.0000e+00
  1000022  1    1    2    0    0 -6.5670953473e+01 -5.8670725236e+02 +4.0542449349e+02 9.4238581777e+02 6.1252260000e+02 0.0000e+00 1.0000e+00
  1000022  1    1    2    0    0 +1.1564702650e+02 +6.2675739674e+02 +6.1771406561e+02 1.0784032972e+03 6.1252260000e+02 0.0000e+00 1.0000e+00
        3  1    1    2  501    0 -4.9976073031e+01 -4.0050144386e+01 -6.5007394667e+01 9.1255642716e+01 9.5000000000e-02 0.0000e+00 1.0000e+00
<mgrwt>
<rscale>  1 0.86818042E+03</rscale>
<asrwt>0</asrwt>
<pdfrwt beam="2">  1       21 0.88762584E-01 0.86818042E+03</pdfrwt>
<pdfrwt beam="1">  1        3 0.23616738E+00 0.86818042E+03</pdfrwt>
<totfact> 0.42483602E+00</totfact>
</mgrwt>
</event>
<event>
 5      1 +1.8937969e-08 6.72369300e+02 7.81665300e-03 9.76568700e-02
        3 -1    0    0  502    0 +0.0000000000e+00 +0.0000000000e+00 +6.8603689803e+02 6.8603690460e+02 9.5000000000e-02 0.0000e+00 1.0000e+00
       -3 -1    0    0    0  501 -0.0000000000e+00 -0.0000000000e+00 -1.3296958763e+03 1.3296958797e+03 9.5000000000e-02 0.0000e+00 1.0000e+00
  1000022  1    1    2    0    0 -1.2242009154e+02 -2.4680387298e+02 +2.5037999795e+02 7.1677954032e+02 6.1252260000e+02 0.0000e+00 -1.0000e+00
  1000022  1    1    2    0    0 +6.4756658709e+01 +2.7131965105e+02 -9.8227203629e+02 1.1907350951e+03 6.1252260000e+02 0.0000e+00 -1.0000e+00
       21  1    1    2  502  501 +5.7663432830e+01 -2.4515778065e+01 +8.8233060067e+01 1.0821814889e+02 0.0000000000e+00 0.0000e+00 -1.0000e+00
<mgrwt>
<rscale>  1 0.67236931E+03</rscale>
<asrwt>0</asrwt>
<pdfrwt beam="1">  1        3 0.10554414E+00 0.67236931E+03</pdfrwt>
<pdfrwt beam="2">  1       -3 0.20456860E+00 0.67236931E+03</pdfrwt>
<totfact> 0.27610883E-01</totfact>
</mgrwt>
</event>
<event>
 5      1 +1.8937969e-08 7.94772800e+02 7.81665300e-03 9.56761400e-02
       21 -1    0    0  501  502 +0.0000000000e+00 +0.0000000000e+00 +1.5829916680e+03 1.5829916680e+03 0.0000000000e+00 0.0000e+00 -1.0000e+00
        3 -1    0    0  502    0 -0.0000000000e+00 -0.0000000000e+00 -6.0252963318e+02 6.0252964067e+02 9.5000000000e-02 0.0000e+00 -1.0000e+00
  1000022  1    1    2    0    0 +5.1577463674e+02 -9.4426798426e+01 -5.0537742679e+01 8.0788482788e+02 6.1252260000e+02 0.0000e+00 1.0000e+00
  1000022  1    1    2    0    0 -4.3171180708e+02 +1.8814659175e+02 +7.8586561003e+02 1.1020630276e+03 6.1252260000e+02 0.0000e+00 1.0000e+00
        3  1    1    2  501    0 -8.4062829657e+01 -9.3719793321e+01 +2.4513416743e+02 2.7557345311e+02 9.5000000000e-02 0.0000e+00 1.0000e+00
<mgrwt>
<rscale>  1 0.79477276E+03</rscale>
<asrwt>0</asrwt>
<pdfrwt beam="1">  1       21 0.24353718E+00 0.79477276E+03</pdfrwt>
<pdfrwt beam="2">  1        3 0.92696868E-01 0.79477276E+03</pdfrwt>
<totfact> 0.29357421E+00</totfact>
</mgrwt>
</event>
<event>
 5      1 +1.8937969e-08 9.70134100e+02 7.81665300e-03 9.34192200e-02
        2 -1    0    0  502    0 +0.0000000000e+00 +0.0000000000e+00 +1.4703373535e+03 1.4703373535e+03 2.5000000000e-03 0.0000e+00 -1.0000e+00
       -2 -1    0    0    0  501 -0.0000000000e+00 -0.0000000000e+00 -1.0757388479e+03 1.0757388479e+03 2.5000000000e-03 0.0000e+00 1.0000e+00
  1000022  1    1    2    0    0 -3.3841378072e+01 -7.6234144937e+02 +8.2813765306e+02 1.2819148303e+03 6.1252260000e+02 0.0000e+00 -1.0000e+00
  1000022  1    1    2    0    0 -1.6362656292e+02 +7.1842668690e+02 -4.5503289120e+02 1.0607306086e+03 6.1252260000e+02 0.0000e+00 1.0000e+00
       21  1    1    2  502  501 +1.9746794099e+02 +4.3914762467e+01 +2.1493743798e+01 2.0343076243e+02 0.0000000000e+00 0.0000e+00 1.0000e+00
<mgrwt>
<rscale>  1 0.97013407E+03</rscale>
<asrwt>0</asrwt>
<pdfrwt beam="1">  1        2 0.22620575E+00 0.97013407E+03</pdfrwt>
<pdfrwt beam="2">  1       -2 0.16549828E+00 0.97013407E+03</pdfrwt>
<totfact> 0.30173112E+00</totfact>
</mgrwt>
</event>
<event>
 5      1 +1.8937969e-08 8.13837200e+02 7.81665300e-03 9.54020200e-02
        3 -1    0    0  502    0 -0.0000000000e+00 +0.0000000000e+00 +1.4277210741e+03 1.4277210773e+03 9.5000000000e-02 0.0000e+00 -1.0000e+00
       21 -1    0    0  501  502 +0.0000000000e+00 -0.0000000000e+00 -5.7800431012e+02 5.7800431012e+02 0.0000000000e+00 0.0000e+00 -1.0000e+00
  1000022  1    1    2    0    0 +3.6096100716e+02 +4.0318674910e+02 +8.0416339620e+02 1.1466102680e+03 6.1252260000e+02 0.0000e+00 -1.0000e+00
  1000022  1    1    2    0    0 -3.6792098536e+02 -3.7450295948e+02 +8.3508561400e+01 8.1103386703e+02 6.1252260000e+02 0.0000e+00 -1.0000e+00
        3  1    1    2  501    0 +6.9599781968e+00 -2.8683789620e+01 -3.7955193614e+01 4.8081252383e+01 9.5000000000e-02 0.0000e+00 1.0000e+00
<mgrwt>
<rscale>  1 0.81383717E+03</rscale>
<asrwt>0</asrwt>
<pdfrwt beam="2">  1       21 0.88923741E-01 0.81383717E+03</pdfrwt>
<pdfrwt beam="1">  1        3 0.21964939E+00 0.81383717E+03</pdfrwt>
<totfact> 0.53471210E+00</totfact>
</mgrwt>
</event>
<event>
 5      1 +1.8937969e-08 8.11345600e+02 7.81665300e-03 9.54373800e-02
        3 -1    0    0  502    0 -0.0000000000e+00 +0.0000000000e+00 +1.2294868575e+03 1.2294868612e+03 9.5000000000e-02 0.0000e+00 1.0000e+00
       21 -1    0    0  501  502 +0.0000000000e+00 -0.0000000000e+00 -7.4833320273e+02 7.4833320273e+02 0.0000000000e+00 0.0000e+00 1.0000e+00
  1000022  1    1    2    0    0 +1.2224142539e+02 -5.4556175397e+02 -2.6553373379e+01 8.2974068879e+02 6.1252260000e+02 0.0000e+00 -1.0000e+00
  1000022  1    1    2    0    0 -1.2385375654e+02 +5.0478396851e+02 +6.2888808752e+02 1.0202111399e+03 6.1252260000e+02 0.0000e+00 -1.0000e+00
        3  1    1    2  501    0 +1.6123311498e+00 +4.0777785461e+01 -1.2118105936e+02 1.2786823520e+02 9.5000000000e-02 0.0000e+00 -1.0000e+00
<mgrwt>
<rscale>  1 0.81134561E+03</rscale>
<asrwt>0</asrwt>
<pdfrwt beam="2">  1       21 0.11512819E+00 0.81134561E+03</pdfrwt>
<pdfrwt beam="1">  1        3 0.18915182E+00 0.81134561E+03</pdfrwt>
<totfact> 0.43734675E+00</totfact>
</mgrwt>
</event>
<event>
 5      1 +1.8937969e-08 6.17085300e+02 7.81665300e-03 9.87058000e-02
       -3 -1    0    0    0  501 -0.0000000000e+00 +0.0000000000e+00 +1.7959564631e+03 1.7959564656e+03 9.5000000000e-02 0.0000e+00 -1.0000e+00
        3 -1    0    0  502    0 +0.0000000000e+00 -0.0000000000e+00 -8.9467829780e+02 8.9467830285e+02 9.5000000000e-02 0.0000e+00 -1.0000e+00
  1000022  1    1    2    0    0 +1.1727954653e+02 +7.2738800438e+00 +5.9617283132e+02 8.6279393929e+02 6.1252260000e+02 0.0000e+00 1.0000e+00
  1000022  1    1    2    0    0 -6.7614984968e+01 -1.2875719557e+00 -6.3589871195e+02 8.8550807529e+02 6.1252260000e+02 0.0000e+00 1.0000e+00
       21  1    1    2  502  501 -4.9664561564e+01 -5.9863080881e+00 +9.4100404595e+02 9.4233275389e+02 0.0000000000e+00 0.0000e+00 -1.0000e+00
<mgrwt>
<rscale>  1 0.61708526E+03</rscale>
<asrwt>0</asrwt>
<pdfrwt beam="2">  1        3 0.13764281E+00 0.61708526E+03</pdfrwt>
<pdfrwt beam="1">  1       -3 0.27630100E+00 0.61708526E+03</pdfrwt>
<totfact> 0.55620086E-02</totfact>
</mgrwt>
</event>
<event>
 5      1 +1.8937969e-08 7.82224100e+02 7.81665300e-03 9.58611000e-02
       -1 -1    0    0    0  501 -0.0000000000e+00 +0.0000000000e+00 +3.6842149263e+02 3.6842149266e+02 5.0000000000e-03 0.0000e+00 1.0000e+00
        1 -1    0    0  502    0 +0.0000000000e+00 -0.0000000000e+00 -2.7170149025e+03 2.7170149025e+03 5.0000000000e-03 0.0000e+00 -1.0000e+00
  1000022  1    1    2    0    0 +4.1113450506e+02 +1.4021064082e+01 -1.1010397234e+03 1.3254058169e+03 6.1252260000e+02 0.0000e+00 1.0000e+00
  1000022  1    1    2    0    0 -5.5995232437e+02 -1.1278817880e+02 -1.3232615975e+03 1.5660373462e+03 6.1252260000e+02 0.0000e+00 -1.0000e+00
       21  1    1    2  502  501 +1.4881781931e+02 +9.8767114722e+01 +7.5707911007e+01 1.9399323205e+02 0.0000000000e+00 0.0000e+00 -1.0000e+00
<mgrwt>
<rscale>  1 0.78222406E+03</rscale>
<asrwt>0</asrwt>
<pdfrwt beam="2">  1        1 0.41800228E+00 0.78222406E+03</pdfrwt>
<pdfrwt beam="1">  1       -1 0.56680231E-01 0.78222406E+03</pdfrwt>
<totfact> 0.31858617E+00</totfact>
</mgrwt>
</event>
<event>
 5      1 +1.8937969e-08 8.24151200e+02 7.81665300e-03 9.52570200e-02
        1 -1    0    0  502    0 +0.0000000000e+00 +0.0000000000e+00 +1.7156662874e+03 1.7156662875e+03 5.0000000000e-03 0.0000e+00 -1.0000e+00
       -1 -1    0    0    0  501 -0.0000000000e+00 -0.0000000000e+00 -4.9636973417e+02 4.9636973419e+02 5.0000000000e-03 0.0000e+00 1.0000e+00
  1000022  1    1    2    0    0 -1.4053995227e+02 +5.3814385915e+02 +2.8084122564e+02 8.7373109185e+02 6.1252260000e+02 0.0000e+00 1.0000e+00
  1000022  1    1    2    0    0 +5.0905572783e+01 -5.4906367310e+02 +9.3715199615e+02 1.2479984350e+03 6.1252260000e+02 0.0000e+00 -1.0000e+00
       21  1    1    2  502  501 +8.9634379492e+01 +1.0919813952e+01 +1.3033314893e+00 9.0306494764e+01 0.0000000000e+00 0.0000e+00 1.0000e+00
<mgrwt>
<rscale>  1 0.82415121E+03</rscale>
<asrwt>0</asrwt>
<pdfrwt beam="1">  1        1 0.26394866E+00 0.82415121E+03</pdfrwt>
<pdfrwt beam="2">  1       -1 0.76364574E-01 0.82415121E+03</pdfrwt>
<totfact> 0.82533067E+00</totfact>
</mgrwt>
</event>
<event>
 5      1 +1.8937969e-08 6.67757500e+02 7.81665300e-03 9.77401700e-02
       -1 -1    0    0    0  501 -0.0000000000e+00 +0.0000000000e+00 +1.6856511661e+03 1.6856511661e+03 5.0000000000e-03 0.0000e+00 1.0000e+00
        1 -1    0    0  502    0 +0.0000000000e+00 -0.0000000000e+00 -1.4058854404e+03 1.4058854404e+03 5.0000000000e-03 0.0000e+00 -1.0000e+00
  1000022  1    1    2    0    0 -1.1063555964e+02 -2.3387872164e+02 -1.1863561433e+03 1.3599868814e+03 6.1252260000e+02 0.0000e+00 -1.0000e+00
  1000022  1    1    2    0    0 +4.5100335854e+01 +3.6599060912e+02 +9.1592761008e+02 1.1619339433e+03 6.1252260000e+02 0.0000e+00 1.0000e+00
       21  1    1    2  502  501 +6.5535223785e+01 -1.3211188748e+02 +5.5019425883e+02 5.6961578175e+02 0.0000000000e+00 0.0000e+00 1.0000e+00
<mgrwt>
<rscale>  1 0.66775750E+03</rscale>
<asrwt>0</asrwt>
<pdfrwt beam="2">  1        1 0.21629007E+00 0.66775750E+03</pdfrwt>
<pdfrwt beam="1">  1       -1 0.25933095E+00 0.66775750E+03</pdfrwt>
<totfact> 0.49934431E-01</totfact>
</mgrwt>
</event>
<event>
 5      1 +1.8937969e-08 6.71433100e+02 7.81665300e-03 9.76737200e-02
        2 -1    0    0  502    0 +0.0000000000e+00 +0.0000000000e+00 +3.1896992143e+03 3.1896992143e+03 2.5000000000e-03 0.0000e+00 -1.0000e+00
       -2 -1    0    0    0  501 -0.0000000000e+00 -0.0000000000e+00 -4.6000957092e+02 4.6000957093e+02 2.5000000000e-03 0.0000e+00 1.0000e+00
  1000022  1    1    2    0    0 +1.9674617833e+02 +1.7647990217e+02 +2.7044989464e+03 2.7855614697e+03 6.1252260000e+02 0.0000e+00 -1.0000e+00
  1000022  1    1    2    0    0 -2.1990138919e+02 -1.6705073683e+02 -1.4895938881e+02 6.8821174406e+02 6.1252260000e+02 0.0000e+00 1.0000e+00
       21  1    1    2  502  501 +2.3155210857e+01 -9.4291653416e+00 +1.7415008579e+02 1.7593557153e+02 0.0000000000e+00 0.0000e+00 -1.0000e+00
<mgrwt>
<rscale>  1 0.67143313E+03</rscale>
<asrwt>0</asrwt>
<pdfrwt beam="1">  1        2 0.49072296E+00 0.67143313E+03</pdfrwt>
<pdfrwt beam="2">  1       -2 0.70770702E-01 0.67143313E+03</pdfrwt>
<totfact> 0.26136827E+00</totfact>
</mgrwt>
</event>
<event>
 5      1 +1.8937969e-08 1.34736700e+03 7.81665300e-03 9.11945300e-02
        2 -1    0    0  502    0 -0.0000000000e+00 +0.0000000000e+00 +2.9386958431e+03 2.9386958431e+03 2.5000000000e-03 0.0000e+00 1.0000e+00
       21 -1    0    0  501  502 +0.0000000000e+00 -0.0000000000e+00 -1.1182508268e+03 1.1182508268e+03 0.0000000000e+00 0.0000e+00 1.0000e+00
  1000022  1    1    2    0    0 +9.3113369179e+02 -6.4751169438e+02 +6.4191319808e+02 1.4399714705e+03 6.1252260000e+02 0.0000e+00 1.0000e+00
  1000022  1    1    2    0    0 +3.4567614985e+02 +4.3452258465e+02 +1.0198208574e+03 1.3128291564e+03 6.1252260000e+02 0.0000e+00 -1.0000e+00
        2  1    1    2  501    0 -1.2768098416e+03 +2.1298910973e+02 +1.5871096072e+02 1.3041460431e+03 2.5000000000e-03 0.0000e+00 1.0000e+00
<mgrwt>
<rscale>  1 0.11924925E+04</rscale>
<asrwt>0</asrwt>
<pdfrwt beam="2">  1       21 0.17203859E+00 0.13473671E+04</pdfrwt>
<pdfrwt beam="1">  1        2 0.45210705E+00 0.13473671E+04</pdfrwt>
<totfact> 0.36013819E+00</totfact>
</mgrwt>
</event>
<event>
 5      1 +1.8937969e-08 1.43432600e+03 7.81665300e-03 8.92934000e-02
        2 -1    0    0  502    0 +0.0000000000e+00 +0.0000000000e+00 +3.1153082904e+03 3.1153082904e+03 2.5000000000e-03 0.0000e+00 -1.0000e+00
       -2 -1    0    0    0  501 -0.0000000000e+00 -0.0000000000e+00 -8.1530349190e+02 8.1530349190e+02 2.5000000000e-03 0.0000e+00 1.0000e+00
  1000022  1    1    2    0    0 +1.2741086682e+03 +2.0167194480e+02 +8.4016004525e+02 1.6568274831e+03 6.1252260000e+02 0.0000e+00 -1.0000e+00
  1000022  1    1    2    0    0 -1.2916556919e+03 -1.6354176194e+02 +1.5856476482e+03 2.1411638737e+03 6.1252260000e+02 0.0000e+00 1.0000e+00
       21  1    1    2  502  501 +1.7547023689e+01 -3.8130182866e+01 -1.2580289492e+02 1.3262042548e+02 0.0000000000e+00 0.0000e+00 -1.0000e+00
<mgrwt>
<rscale>  1 0.14343259E+04</rscale>
<asrwt>0</asrwt>
<pdfrwt beam="1">  1        2 0.47927821E+00 0.14343259E+04</pdfrwt>
<pdfrwt beam="2">  1       -2 0.12543130E+00 0.14343259E+04</pdfrwt>
<totfact> 0.67133763E-01</totfact>
</mgrwt>
</event>
<event>
 5      1 +1.8937969e-08 6.81377900e+02 7.81665300e-03 9.74961900e-02
        2 -1    0    0  502    0 -0.0000000000e+00 +0.0000000000e+00 +2.1006652131e+03 2.1006652131e+03 2.5000000000e-03 0.0000e+00 -1.0000e+00
       21 -1    0    0  501  502 +0.0000000000e+00 -0.0000000000e+00 -1.3497245652e+03 1.3497245652e+03 0.0000000000e+00 0.0000e+00 -1.0000e+00
  1000022  1    1    2    0    0 -7.4339374182e+01 -2.9920215713e+02 +1.6880805361e+03 1.8220450338e+03 6.1252260000e+02 0.0000e+00 -1.0000e+00
  1000022  1    1    2    0    0 -8.1962555085e+01 +2.7115919677e+02 +3.0267363375e+00 6.7486166514e+02 6.1252260000e+02 0.0000e+00 1.0000e+00
        2  1    1    2  501    0 +1.5630192927e+02 +2.8042960367e+01 -9.4016662453e+02 9.5348307935e+02 2.5000000000e-03 0.0000e+00 -1.0000e+00
<mgrwt>
<rscale>  1 0.68137792E+03</rscale>
<asrwt>0</asrwt>
<pdfrwt beam="2">  1       21 0.20764993E+00 0.68137792E+03</pdfrwt>
<pdfrwt beam="1">  1        2 0.32317927E+00 0.68137792E+03</pdfrwt>
<totfact> 0.72811224E+00</totfact>
</mgrwt>
</event>
<event>
 5      1 +1.8937969e-08 8.13186700e+02 7.81665300e-03 9.54112400e-02
       -2 -1    0    0    0  501 -0.0000000000e+00 +0.0000000000e+00 +4.8137210376e+02 4.8137210377e+02 2.5000000000e-03 0.0000e+00 1.0000e+00
        2 -1    0    0  502    0 +0.0000000000e+00 -0.0000000000e+00 -1.9807489233e+03 1.9807489233e+03 2.5000000000e-03 0.0000e+00 -1.0000e+00
  1000022  1    1    2    0    0 -4.2413792010e+01 -4.8163792540e+02 -1.1624136343e+03 1.4000583608e+03 6.1252260000e+02 0.0000e+00 -1.0000e+00
  1000022  1    1    2    0    0 +7.9832749133e+01 +5.4853462985e+02 -1.2353725686e+02 8.3528970862e+02 6.1252260000e+02 0.0000e+00 1.0000e+00
       21  1    1    2  502  501 -3.7418957123e+01 -6.6896704452e+01 -2.1342592836e+02 2.2677295763e+02 0.0000000000e+00 0.0000e+00 1.0000e+00
<mgrwt>
<rscale>  1 0.81318665E+03</rscale>
<asrwt>0</asrwt>
<pdfrwt beam="2">  1        2 0.30473060E+00 0.81318665E+03</pdfrwt>
<pdfrwt beam="1">  1       -2 0.74057248E-01 0.81318665E+03</pdfrwt>
<totfact> 0.11532816E+01</totfact>
</mgrwt>
</event>
<event>
 5      1 +1.8937969e-08 7.89357800e+02 7.81665300e-03 9.57555000e-02
        2 -1    0    0  502    0 +0.0000000000e+00 +0.0000000000e+00 +1.7319804872e+03 1.7319804872e+03 2.5000000000e-03 0.0000e+00 -1.0000e+00
       -2 -1    0    0    0  501 -0.0000000000e+00 -0.0000000000e+00 -5.6707262542e+02 5.6707262542e+02 2.5000000000e-03 0.0000e+00 1.0000e+00
  1000022  1    1    2    0    0 -1.3865371504e+02 -4.5900807663e+02 +4.2240691391e+01 7.7902598071e+02 6.1252260000e+02 0.0000e+00 1.0000e+00
  1000022  1    1    2    0    0 +6.9927243410e+01 +5.0052701926e+02 +1.1793202396e+03 1.4217585166e+03 6.1252260000e+02 0.0000e+00 -1.0000e+00
       21  1    1    2  502  501 +6.8726471626e+01 -4.1518942629e+01 -5.6653069256e+01 9.8268615312e+01 0.0000000000e+00 0.0000e+00 1.0000e+00
<mgrwt>
<rscale>  1 0.78935781E+03</rscale>
<asrwt>0</asrwt>
<pdfrwt beam="1">  1        2 0.26645854E+00 0.78935781E+03</pdfrwt>
<pdfrwt beam="2">  1       -2 0.87241942E-01 0.78935781E+03</pdfrwt>
<totfact> 0.10939404E+01</totfact>
</mgrwt>
</event>
<event>
 5      1 +1.8937969e-08 8.84189900e+02 7.81665300e-03 9.44556300e-02
        3 -1    0    0  502    0 -0.0000000000e+00 +0.0000000000e+00 +6.9496292894e+02 6.9496293543e+02 9.5000000000e-02 0.0000e+00 -1.0000e+00
       21 -1    0    0  501  502 +0.0000000000e+00 -0.0000000000e+00 -2.3860264835e+03 2.3860264835e+03 0.0000000000e+00 0.0000e+00 1.0000e+00
  1000022  1    1    2    0    0 -5.2405821245e+02 -1.2038886442e+02 -1.9463997502e+02 8.3797323591e+02 6.1252260000e+02 0.0000e+00 1.0000e+00
  1000022  1    1    2    0    0 +6.5164773434e+02 +5.3408403407e+02 -4.9762329145e+02 1.1544277374e+03 6.1252260000e+02 0.0000e+00 1.0000e+00
        3  1    1    2  501    0 -1.2758952189e+02 -4.1369516965e+02 -9.9880028811e+02 1.0885884457e+03 9.5000000000e-02 0.0000e+00 1.0000e+00
<mgrwt>
<rscale>  1 0.88418992E+03</rscale>
<asrwt>0</asrwt>
<pdfrwt beam="2">  1       21 0.36708100E+00 0.88418992E+03</pdfrwt>
<pdfrwt beam="1">  1        3 0.10691737E+00 0.88418992E+03</pdfrwt>
<totfact> 0.34791323E-01</totfact>
</mgrwt>
</event>
<event>
 5      1 +1.8937969e-08 1.42879600e+03 7.81665300e-03 8.93323500e-02
       21 -1    0    0  501  502 +0.0000000000e+00 +0.0000000000e+00 +1.1515664711e+03 1.1515664711e+03 0.0000000000e+00 0.0000e+00 -1.0000e+00
        2 -1    0    0  502    0 -0.0000000000e+00 -0.0000000000e+00 -4.3113221126e+03 4.3113221126e+03 2.5000000000e-03 0.0000e+00 -1.0000e+00
  1000022  1    1    2    0    0 -1.0012968577e+03 +8.7244170773e+02 -1.4335506020e+03 2.0479260716e+03 6.1252260000e+02 0.0000e+00 1.0000e+00
  1000022  1    1    2    0    0 -3.3470242792e+01 -1.5747963203e+03 -8.8494141333e+02 1.9077234989e+03 6.1252260000e+02 0.0000e+00 -1.0000e+00
        2  1    1    2  501    0 +1.0347671005e+03 +7.0235461262e+02 -8.4126362623e+02 1.5072390132e+03 2.5000000000e-03 0.0000e+00 -1.0000e+00
<mgrwt>
<rscale>  1 0.14287955E+04</rscale>
<asrwt>0</asrwt>
<pdfrwt beam="1">  1       21 0.17716407E+00 0.14287955E+04</pdfrwt>
<pdfrwt beam="2">  1        2 0.66328032E+00 0.14287955E+04</pdfrwt>
<totfact> 0.32416979E-01</totfact>
</mgrwt>
</event>
<event>
 5      1 +1.8937969e-08 7.30869200e+02 7.81665300e-03 9.66585100e-02
       21 -1    0    0  501  502 +0.0000000000e+00 +0.0000000000e+00 +8.6881564879e+02 8.6881564879e+02 0.0000000000e+00 0.0000e+00 -1.0000e+00
        2 -1    0    0  502    0 -0.0000000000e+00 -0.0000000000e+00 -1.0595729928e+03 1.0595729928e+03 2.5000000000e-03 0.0000e+00 -1.0000e+00
  1000022  1    1    2    0    0 -2.1884155772e+02 -5.8601714365e+01 -7.5564745854e+01 6.5743422077e+02 6.1252260000e+02 0.0000e+00 1.0000e+00
  1000022  1    1    2    0    0 +5.7885257241e+02 +9.9792422949e+01 -2.4939784100e+02 8.8454058520e+02 6.1252260000e+02 0.0000e+00 -1.0000e+00
        2  1    1    2  501    0 -3.6001101469e+02 -4.1190708583e+01 +1.3420524282e+02 3.8641383565e+02 2.5000000000e-03 0.0000e+00 -1.0000e+00
<mgrwt>
<rscale>  1 0.73086917E+03</rscale>
<asrwt>0</asrwt>
<pdfrwt beam="1">  1       21 0.13366395E+00 0.73086917E+03</pdfrwt>
<pdfrwt beam="2">  1        2 0.16301123E+00 0.73086917E+03</pdfrwt>
<totfact> 0.98377264E+01</totfact>
</mgrwt>
</event>
<event>
 5      1 +1.8937969e-08 7.45336500e+02 7.81665300e-03 9.64269500e-02
       -2 -1    0    0    0  501 -0.0000000000e+00 +0.0000000000e+00 +4.0012475940e+02 4.0012475941e+02 2.5000000000e-03 0.0000e+00 1.0000e+00
        2 -1    0    0  502    0 +0.0000000000e+00 -0.0000000000e+00 -2.2954829843e+03 2.2954829843e+03 2.5000000000e-03 0.0000e+00 -1.0000e+00
  1000022  1    1    2    0    0 -4.1698029506e+02 +4.5977128071e+01 -1.7434244300e+03 1.8949140196e+03 6.1252260000e+02 0.0000e+00 -1.0000e+00
  1000022  1    1    2    0    0 +4.4398558471e+02 -4.0429520659e+01 -1.5386724069e+02 7.7305679535e+02 6.1252260000e+02 0.0000e+00 1.0000e+00
       21  1    1    2  502  501 -2.7005289657e+01 -5.5476074128e+00 +1.9334458729e+00 2.7636928744e+01 0.0000000000e+00 0.0000e+00 1.0000e+00
<mgrwt>
<rscale>  1 0.74533646E+03</rscale>
<asrwt>0</asrwt>
<pdfrwt beam="2">  1        2 0.35315122E+00 0.74533646E+03</pdfrwt>
<pdfrwt beam="1">  1       -2 0.61557656E-01 0.74533646E+03</pdfrwt>
<totfact> 0.11670808E+01</totfact>
</mgrwt>
</event>
<event>
 5      1 +1.8937969e-08 6.21094100e+02 7.81665300e-03 9.86258400e-02
        1 -1    0    0  502    0 +0.0000000000e+00 +0.0000000000e+00 +2.0468077114e+03 2.0468077114e+03 5.0000000000e-03 0.0000e+00 -1.0000e+00
       -1 -1    0    0    0  501 -0.0000000000e+00 -0.0000000000e+00 -2.1522863555e+02 2.1522863560e+02 5.0000000000e-03 0.0000e+00 1.0000e+00
  1000022  1    1    2    0    0 -6.5723853838e+01 -8.2753918389e+01 +1.2466875178e+03 1.3930475722e+03 6.1252260000e+02 0.0000e+00 -1.0000e+00
  1000022  1    1    2    0    0 +7.5851908340e+01 +6.3439195695e+01 +5.7040231363e+02 8.4280530281e+02 6.1252260000e+02 0.0000e+00 1.0000e+00
       21  1    1    2  502  501 -1.0128054502e+01 +1.9314722694e+01 +1.4489244475e+01 2.6183472005e+01 0.0000000000e+00 0.0000e+00 1.0000e+00
<mgrwt>
<rscale>  1 0.62109411E+03</rscale>
<asrwt>0</asrwt>
<pdfrwt beam="1">  1        1 0.31489351E+00 0.62109411E+03</pdfrwt>
<pdfrwt beam="2">  1       -1 0.33112097E-01 0.62109411E+03</pdfrwt>
<totfact> 0.25154351E+01</totfact>
</mgrwt>
</event>
<event>
 5      1 +1.8937969e-08 8.51110500e+02 7.81665300e-03 9.48884800e-02
       -3 -1    0    0    0  501 -0.0000000000e+00 +0.0000000000e+00 +5.2909749957e+02 5.2909750810e+02 9.5000000000e-02 0.0000e+00 -1.0000e+00
        3 -1    0    0  502    0 +0.0000000000e+00 -0.0000000000e+00 -1.8680836461e+03 1.8680836485e+03 9.5000000000e-02 0.0000e+00 -1.0000e+00
  1000022  1    1    2    0    0 -5.0885213338e+02 +2.8493510208e+02 -2.7057649698e+02 8.8798315427e+02 6.1252260000e+02 0.0000e+00 1.0000e+00
  1000022  1    1    2    0    0 +6.1139333236e+02 -1.2352337363e+02 -8.5899165791e+02 1.2256061499e+03 6.1252260000e+02 0.0000e+00 1.0000e+00
       21  1    1    2  502  501 -1.0254119898e+02 -1.6141172845e+02 -2.0941799162e+02 2.8359185247e+02 0.0000000000e+00 0.0000e+00 1.0000e+00
<mgrwt>
<rscale>  1 0.85111051E+03</rscale>
<asrwt>0</asrwt>
<pdfrwt beam="2">  1        3 0.28739748E+00 0.85111051E+03</pdfrwt>
<pdfrwt beam="1">  1       -3 0.81399617E-01 0.85111051E+03</pdfrwt>
<totfact> 0.16573180E-01</totfact>
</mgrwt>
</event>
<event>
 5      1 +1.8937969e-08 8.57076000e+02 7.81665300e-03 9.48088900e-02
       21 -1    0    0  501  502 +0.0000000000e+00 +0.0000000000e+00 +1.9322863652e+03 1.9322863652e+03 0.0000000000e+00 0.0000e+00 -1.0000e+00
        3 -1    0    0  502    0 -0.0000000000e+00 -0.0000000000e+00 -6.4064010121e+02 6.4064010825e+02 9.5000000000e-02 0.0000e+00 1.0000e+00
  1000022  1    1    2    0    0 -4.1571881733e+02 -3.1944021279e+02 +5.6509606978e+02 9.8457182989e+02 6.1252260000e+02 0.0000e+00 -1.0000e+00
  1000022  1    1    2    0    0 +5.0781023744e+02 +3.9701056046e+02 +3.8693762291e+01 8.9003919302e+02 6.1252260000e+02 0.0000e+00 -1.0000e+00
        3  1    1    2  501    0 -9.2091420109e+01 -7.7570347664e+01 +6.8785643194e+02 6.9831545055e+02 9.5000000000e-02 0.0000e+00 -1.0000e+00
<mgrwt>
<rscale>  1 0.85707600E+03</rscale>
<asrwt>0</asrwt>
<pdfrwt beam="1">  1       21 0.29727482E+00 0.85707600E+03</pdfrwt>
<pdfrwt beam="2">  1        3 0.98560017E-01 0.85707600E+03</pdfrwt>
<totfact> 0.11596345E+00</totfact>
</mgrwt>
</event>
<event>
 5      1 +1.8937969e-08 8.28721700e+02 7.81665300e-03 9.51935000e-02
       -2 -1    0    0    0  501 -0.0000000000e+00 +0.0000000000e+00 +1.3271933089e+03 1.3271933089e+03 2.5000000000e-03 0.0000e+00 1.0000e+00
        2 -1    0    0  502    0 +0.0000000000e+00 -0.0000000000e+00 -6.9078856766e+02 6.9078856766e+02 2.5000000000e-03 0.0000e+00 -1.0000e+00
  1000022  1    1    2    0    0 +4.6639778626e+02 +2.6831352595e+02 +6.7627410467e+02 1.0592684473e+03 6.1252260000e+02 0.0000e+00 1.0000e+00
  1000022  1    1    2    0    0 -4.6350763547e+02 -3.2676273980e+02 -1.3641459068e+02 8.4581681960e+02 6.1252260000e+02 0.0000e+00 -1.0000e+00
       21  1    1    2  502  501 -2.8901507944e+00 +5.8449213857e+01 +9.6545227247e+01 1.1289660968e+02 0.0000000000e+00 0.0000e+00 1.0000e+00
<mgrwt>
<rscale>  1 0.82872170E+03</rscale>
<asrwt>0</asrwt>
<pdfrwt beam="2">  1        2 0.10627517E+00 0.82872170E+03</pdfrwt>
<pdfrwt beam="1">  1       -2 0.20418358E+00 0.82872170E+03</pdfrwt>
<totfact> 0.52647109E+00</totfact>
</mgrwt>
</event>
<event>
 5      1 +1.8937969e-08 7.67384400e+02 7.81665300e-03 9.60846500e-02
        3 -1    0    0  502    0 +0.0000000000e+00 +0.0000000000e+00 +2.3665082809e+03 2.3665082828e+03 9.5000000000e-02 0.0000e+00 -1.0000e+00
       -3 -1    0    0    0  501 -0.0000000000e+00 -0.0000000000e+00 -3.1582670898e+02 3.1582672327e+02 9.5000000000e-02 0.0000e+00 -1.0000e+00
  1000022  1    1    2    0    0 -4.5148693369e+02 +1.2258537123e+02 +1.6099202985e+03 1.7849075403e+03 6.1252260000e+02 0.0000e+00 -1.0000e+00
  1000022  1    1    2    0    0 +4.3423290117e+02 -1.1046157077e+02 +4.1804747089e+02 8.6643383735e+02 6.1252260000e+02 0.0000e+00 -1.0000e+00
       21  1    1    2  502  501 +1.7254032522e+01 -1.2123800456e+01 +2.2713802584e+01 3.0993628436e+01 0.0000000000e+00 0.0000e+00 -1.0000e+00
<mgrwt>
<rscale>  1 0.76738437E+03</rscale>
<asrwt>0</asrwt>
<pdfrwt beam="1">  1        3 0.36407820E+00 0.76738437E+03</pdfrwt>
<pdfrwt beam="2">  1       -3 0.48588726E-01 0.76738437E+03</pdfrwt>
<totfact> 0.19504793E-01</totfact>
</mgrwt>
</event>
<event>
 5      1 +1.8937969e-08 1.69655700e+03 7.81665300e-03 8.76333000e-02
       -2 -1    0    0    0  501 -0.0000000000e+00 +0.0000000000e+00 +1.0633057006e+03 1.0633057006e+03 2.5000000000e-03 0.0000e+00 1.0000e+00
        2 -1    0    0  502    0 +0.0000000000e+00 -0.0000000000e+00 -2.8125690936e+03 2.8125690936e+03 2.5000000000e-03 0.0000e+00 -1.0000e+00
  1000022  1    1    2    0    0 +1.4868387054e+03 -5.6642548721e+02 -6.6198122423e+02 1.8289150459e+03 6.1252260000e+02 0.0000e+00 -1.0000e+00
  1000022  1    1    2    0    0 -1.4829915674e+03 +5.2009058509e+02 -1.0454480009e+03 1.9844151944e+03 6.1252260000e+02 0.0000e+00 1.0000e+00
       21  1    1    2  502  501 -3.8471379993e+00 +4.6334902118e+01 -4.1834167823e+01 6.2544553900e+01 0.0000000000e+00 0.0000e+00 1.0000e+00
<mgrwt>
<rscale>  1 0.16965572E+04</rscale>
<asrwt>0</asrwt>
<pdfrwt beam="2">  1        2 0.43270294E+00 0.16965572E+04</pdfrwt>
<pdfrwt beam="1">  1       -2 0.16358549E+00 0.16965572E+04</pdfrwt>
<totfact> 0.49850117E-01</totfact>
</mgrwt>
</event>
<event>
 5      1 +1.8937969e-08 8.98291300e+02 7.81665300e-03 9.42772000e-02
       21 -1    0    0  501  502 +0.0000000000e+00 +0.0000000000e+00 +1.1233869195e+03 1.1233869195e+03 0.0000000000e+00 0.0000e+00 -1.0000e+00
        3 -1    0    0  502    0 -0.0000000000e+00 -0.0000000000e+00 -7.7701186890e+02 7.7701187471e+02 9.5000000000e-02 0.0000e+00 -1.0000e+00
  1000022  1    1    2    0    0 +1.8092041987e+02 -6.1865733441e+02 +3.0792189334e+02 9.4099358322e+02 6.1252260000e+02 0.0000e+00 1.0000e+00
  1000022  1    1    2    0    0 -1.5969261116e+02 +6.4778110970e+02 +7.4075944391e+01 9.0873168603e+02 6.1252260000e+02 0.0000e+00 1.0000e+00
        3  1    1    2  501    0 -2.1227808712e+01 -2.9123775284e+01 -3.5622787104e+01 5.0673524996e+01 9.5000000000e-02 0.0000e+00 1.0000e+00
<mgrwt>
<rscale>  1 0.89829134E+03</rscale>
<asrwt>0</asrwt>
<pdfrwt beam="1">  1       21 0.17282876E+00 0.89829134E+03</pdfrwt>
<pdfrwt beam="2">  1        3 0.11954029E+00 0.89829134E+03</pdfrwt>
<totfact> 0.47238218E+00</totfact>
</mgrwt>
</event>
<event>
 5      1 +1.8937969e-08 6.47555300e+02 7.81665300e-03 9.81137700e-02
        3 -1    0    0  502    0 +0.0000000000e+00 +0.0000000000e+00 +2.9858804999e+03 2.9858805014e+03 9.5000000000e-02 0.0000e+00 -1.0000e+00
       -3 -1    0    0    0  501 -0.0000000000e+00 -0.0000000000e+00 -5.2718818835e+02 5.2718819691e+02 9.5000000000e-02 0.0000e+00 -1.0000e+00
  1000022  1    1    2    0    0 +9.6304227721e+01 +1.1083784862e+02 +2.0886115521e+03 2.1815227901e+03 6.1252260000e+02 0.0000e+00 1.0000e+00
  1000022  1    1    2    0    0 -3.0709363101e+02 -4.3134669831e+02 +4.6859719800e+02 9.3548583198e+02 6.1252260000e+02 0.0000e+00 1.0000e+00
       21  1    1    2  502  501 +2.1078940329e+02 +3.2050884968e+02 -9.8516438557e+01 3.9606007616e+02 0.0000000000e+00 0.0000e+00 1.0000e+00
<mgrwt>
<rscale>  1 0.64755526E+03</rscale>
<asrwt>0</asrwt>
<pdfrwt beam="1">  1        3 0.45936623E+00 0.64755526E+03</pdfrwt>
<pdfrwt beam="2">  1       -3 0.81105877E-01 0.64755526E+03</pdfrwt>
<totfact> 0.21141861E-02</totfact>
</mgrwt>
</event>
<event>
 5      1 +1.8937969e-08 6.98231800e+02 7.81665300e-03 9.72026100e-02
       -2 -1    0    0    0  501 -0.0000000000e+00 +0.0000000000e+00 +4.4977549445e+02 4.4977549446e+02 2.5000000000e-03 0.0000e+00 -1.0000e+00
        2 -1    0    0  502    0 +0.0000000000e+00 -0.0000000000e+00 -1.2280755887e+03 1.2280755887e+03 2.5000000000e-03 0.0000e+00 1.0000e+00
  1000022  1    1    2    0    0 +2.6217432484e+02 -2.1554837725e+02 -1.4101563212e+02 7.1432893232e+02 6.1252260000e+02 0.0000e+00 -1.0000e+00
  1000022  1    1    2    0    0 -2.4028468264e+02 +2.2344495435e+02 -5.9305232392e+02 9.1354221072e+02 6.1252260000e+02 0.0000e+00 1.0000e+00
       21  1    1    2  502  501 -2.1889642195e+01 -7.8965771080e+00 -4.4232138237e+01 4.9979940161e+01 0.0000000000e+00 0.0000e+00 -1.0000e+00
<mgrwt>
<rscale>  1 0.69823182E+03</rscale>
<asrwt>0</asrwt>
<pdfrwt beam="2">  1        2 0.18893470E+00 0.69823182E+03</pdfrwt>
<pdfrwt beam="1">  1       -2 0.69196231E-01 0.69823182E+03</pdfrwt>
<totfact> 0.35590912E+01</totfact>
</mgrwt>
</event>
<event>
 5      1 +1.8937969e-08 7.69446500e+02 7.81665300e-03 9.60532600e-02
       -3 -1    0    0    0  501 -0.0000000000e+00 +0.0000000000e+00 +1.4044119256e+03 1.4044119288e+03 9.5000000000e-02 0.0000e+00 1.0000e+00
        3 -1    0    0  502    0 +0.0000000000e+00 -0.0000000000e+00 -6.2665490290e+02 6.2665491010e+02 9.5000000000e-02 0.0000e+00 1.0000e+00
  1000022  1    1    2    0    0 +4.5927228510e+02 +1.0784678985e+02 -1.3284309346e+02 7.8447000257e+02 6.1252260000e+02 0.0000e+00 -1.0000e+00
  1000022  1    1    2    0    0 -4.4398955653e+02 -7.4408306231e+01 +7.0180815910e+02 1.0345926493e+03 6.1252260000e+02 0.0000e+00 -1.0000e+00
       21  1    1    2  502  501 -1.5282728570e+01 -3.3438483621e+01 +2.0879195704e+02 2.1200418699e+02 0.0000000000e+00 0.0000e+00 -1.0000e+00
<mgrwt>
<rscale>  1 0.76944650E+03</rscale>
<asrwt>0</asrwt>
<pdfrwt beam="2">  1        3 0.96408448E-01 0.76944650E+03</pdfrwt>
<pdfrwt beam="1">  1       -3 0.21606337E+00 0.76944650E+03</pdfrwt>
<totfact> 0.28805778E-01</totfact>
</mgrwt>
</event>
<event>
 5      1 +1.8937969e-08 6.47312400e+02 7.81665300e-03 9.81183500e-02
        2 -1    0    0  502    0 +0.0000000000e+00 +0.0000000000e+00 +1.9073797850e+03 1.9073797850e+03 2.5000000000e-03 0.0000e+00 -1.0000e+00
       -2 -1    0    0    0  501 -0.0000000000e+00 -0.0000000000e+00 -6.0970174396e+02 6.0970174396e+02 2.5000000000e-03 0.0000e+00 1.0000e+00
  1000022  1    1    2    0    0 +7.4469294484e-01 +2.0678686397e+02 -3.3604195874e+02 7.2860791598e+02 6.1252260000e+02 0.0000e+00 1.0000e+00
  1000022  1    1    2    0    0 -6.7977616860e+01 -2.2815926629e+02 +1.4796035854e+03 1.6189775516e+03 6.1252260000e+02 0.0000e+00 -1.0000e+00
       21  1    1    2  502  501 +6.7232923915e+01 +2.1372402319e+01 +1.5411641443e+02 1.6949606142e+02 0.0000000000e+00 0.0000e+00 -1.0000e+00
<mgrwt>
<rscale>  1 0.64731245E+03</rscale>
<asrwt>0</asrwt>
<pdfrwt beam="1">  1        2 0.29344305E+00 0.64731245E+03</pdfrwt>
<pdfrwt beam="2">  1       -2 0.93800267E-01 0.64731245E+03</pdfrwt>
<totfact> 0.75928262E+00</totfact>
</mgrwt>
</event>
<event>
 5      1 +1.8937969e-08 9.55316100e+02 7.81665300e-03 9.35895800e-02
       -2 -1    0    0    0  501 -0.0000000000e+00 +0.0000000000e+00 +6.0435102669e+02 6.0435102669e+02 2.5000000000e-03 0.0000e+00 1.0000e+00
        2 -1    0    0  502    0 +0.0000000000e+00 -0.0000000000e+00 -1.9189539316e+03 1.9189539316e+03 2.5000000000e-03 0.0000e+00 -1.0000e+00
  1000022  1    1    2    0    0 -6.2046488074e+02 +4.4032084639e+02 -1.5099916051e+02 9.8835408533e+02 6.1252260000e+02 0.0000e+00 -1.0000e+00
  1000022  1    1    2    0    0 +5.6116833213e+02 -3.7183095341e+02 -1.0690889235e+03 1.4040310598e+03 6.1252260000e+02 0.0000e+00 1.0000e+00
       21  1    1    2  502  501 +5.9296548611e+01 -6.8489892986e+01 -9.4514820893e+01 1.3091981319e+02 0.0000000000e+00 0.0000e+00 1.0000e+00
<mgrwt>
<rscale>  1 0.95531607E+03</rscale>
<asrwt>0</asrwt>
<pdfrwt beam="2">  1        2 0.29522368E+00 0.95531607E+03</pdfrwt>
<pdfrwt beam="1">  1       -2 0.92977082E-01 0.95531607E+03</pdfrwt>
<totfact> 0.73020402E+00</totfact>
</mgrwt>
</event>
<event>
 5      1 +1.8937969e-08 7.14302700e+02 7.81665300e-03 9.69308100e-02
       -3 -1    0    0    0  501 -0.0000000000e+00 +0.0000000000e+00 +4.4208268102e+02 4.4208269123e+02 9.5000000000e-02 0.0000e+00 1.0000e+00
        3 -1    0    0  502    0 +0.0000000000e+00 -0.0000000000e+00 -2.1812543811e+03 2.1812543832e+03 9.5000000000e-02 0.0000e+00 1.0000e+00
  1000022  1    1    2    0    0 -3.6288100478e+02 +2.1979853676e+02 -1.3318108448e+03 1.5260727644e+03 6.1252260000e+02 0.0000e+00 -1.0000e+00
  1000022  1    1    2    0    0 +3.2001874922e+02 -1.4986985377e+02 -2.6469585189e+01 7.0764224533e+02 6.1252260000e+02 0.0000e+00 -1.0000e+00
       21  1    1    2  502  501 +4.2862255552e+01 -6.9928682990e+01 -3.8089127008e+02 3.8962206467e+02 0.0000000000e+00 0.0000e+00 -1.0000e+00
<mgrwt>
<rscale>  1 0.71430271E+03</rscale>
<asrwt>0</asrwt>
<pdfrwt beam="2">  1        3 0.33557759E+00 0.71430271E+03</pdfrwt>
<pdfrwt beam="1">  1       -3 0.68012722E-01 0.71430271E+03</pdfrwt>
<totfact> 0.13708357E-01</totfact>
</mgrwt>
</event>
<event>
 5      1 +1.8937969e-08 1.07347400e+03 7.81665300e-03 9.23143900e-02
       -2 -1    0    0    0  501 -0.0000000000e+00 +0.0000000000e+00 +8.8213621432e+02 8.8213621432e+02 2.5000000000e-03 0.0000e+00 1.0000e+00
        2 -1    0    0  502    0 +0.0000000000e+00 -0.0000000000e+00 -1.5900653605e+03 1.5900653605e+03 2.5000000000e-03 0.0000e+00 -1.0000e+00
  1000022  1    1    2    0    0 -3.2226470345e+02 +7.3147585869e+02 -2.7521240424e+02 1.0439527163e+03 6.1252260000e+02 0.0000e+00 1.0000e+00
  1000022  1    1    2    0    0 +3.6518986185e+02 -8.9885399017e+02 -2.4526128256e+02 1.1733026733e+03 6.1252260000e+02 0.0000e+00 -1.0000e+00
       21  1    1    2  502  501 -4.2925158405e+01 +1.6737813147e+02 -1.8745545936e+02 2.5494618523e+02 0.0000000000e+00 0.0000e+00 -1.0000e+00
<mgrwt>
<rscale>  1 0.10734741E+04</rscale>
<asrwt>0</asrwt>
<pdfrwt beam="2">  1        2 0.24462544E+00 0.10734741E+04</pdfrwt>
<pdfrwt beam="1">  1       -2 0.13571326E+00 0.10734741E+04</pdfrwt>
<totfact> 0.43339555E+00</totfact>
</mgrwt>
</event>
<event>
 5      1 +1.8937969e-08 6.93434100e+02 7.81665300e-03 9.72852700e-02
        2 -1    0    0  502    0 +0.0000000000e+00 +0.0000000000e+00 +1.8482100533e+03 1.8482100533e+03 2.5000000000e-03 0.0000e+00 -1.0000e+00
       -2 -1    0    0    0  501 -0.0000000000e+00 -0.0000000000e+00 -3.6042205334e+02 3.6042205335e+02 2.5000000000e-03 0.0000e+00 1.0000e+00
  1000022  1    1    2    0    0 -8.1332330415e+01 -3.0856194024e+02 +1.2770267341e+03 1.4518287206e+03 6.1252260000e+02 0.0000e+00 -1.0000e+00
  1000022  1    1    2    0    0 +9.3719900401e+01 +3.3002645823e+02 +2.0467762873e+02 7.3128499922e+02 6.1252260000e+02 0.0000e+00 1.0000e+00
       21  1    1    2  502  501 -1.2387569986e+01 -2.1464517989e+01 +6.0836370799e+00 2.5518386758e+01 0.0000000000e+00 0.0000e+00 -1.0000e+00
<mgrwt>
<rscale>  1 0.69343410E+03</rscale>
<asrwt>0</asrwt>
<pdfrwt beam="1">  1        2 0.28434000E+00 0.69343410E+03</pdfrwt>
<pdfrwt beam="2">  1       -2 0.55449548E-01 0.69343410E+03</pdfrwt>
<totfact> 0.25740282E+01</totfact>
</mgrwt>
</event>
<event>
 5      1 +1.8937969e-08 6.94774500e+02 7.81665300e-03 9.72621000e-02
        2 -1    0    0  502    0 +0.0000000000e+00 +0.0000000000e+00 +1.8073091840e+03 1.8073091840e+03 2.5000000000e-03 0.0000e+00 -1.0000e+00
       -2 -1    0    0    0  501 -0.0000000000e+00 -0.0000000000e+00 -1.0036849330e+03 1.0036849330e+03 2.5000000000e-03 0.0000e+00 1.0000e+00
  1000022  1    1    2    0    0 +1.8824384917e+02 -3.1082237464e+02 +8.6953916180e+02 1.1239789076e+03 6.1252260000e+02 0.0000e+00 -1.0000e+00
  1000022  1    1    2    0    0 -1.9327541706e+02 +2.5909319095e+02 -7.3848671605e+02 1.0124382617e+03 6.1252260000e+02 0.0000e+00 1.0000e+00
       21  1    1    2  502  501 +5.0315678906e+00 +5.1729183683e+01 +6.7257180526e+02 6.7457694769e+02 0.0000000000e+00 0.0000e+00 -1.0000e+00
<mgrwt>
<rscale>  1 0.69477451E+03</rscale>
<asrwt>0</asrwt>
<pdfrwt beam="1">  1        2 0.27804756E+00 0.69477451E+03</pdfrwt>
<pdfrwt beam="2">  1       -2 0.15441307E+00 0.69477451E+03</pdfrwt>
<totfact> 0.24752588E+00</totfact>
</mgrwt>
</event>
<event>
 5      1 +1.8937969e-08 8.69289800e+02 7.81665300e-03 9.46480600e-02
        3 -1    0    0  502    0 +0.0000000000e+00 +0.0000000000e+00 +6.1627185130e+02 6.1627185862e+02 9.5000000000e-02 0.0000e+00 -1.0000e+00
       -3 -1    0    0    0  501 -0.0000000000e+00 -0.0000000000e+00 -1.7475618784e+03 1.7475618810e+03 9.5000000000e-02 0.0000e+00 -1.0000e+00
  1000022  1    1    2    0    0 -6.2325576898e+02 -2.7960975635e+00 -8.1732573226e+02 1.1965203132e+03 6.1252260000e+02 0.0000e+00 1.0000e+00
  1000022  1    1    2    0    0 +6.0807566835e+02 +2.1448172766e+01 -4.8792322917e+02 9.9170008351e+02 6.1252260000e+02 0.0000e+00 1.0000e+00
       21  1    1    2  502  501 +1.5180100632e+01 -1.8652075202e+01 +1.7395893435e+02 1.7561334290e+02 0.0000000000e+00 0.0000e+00 1.0000e+00
<mgrwt>
<rscale>  1 0.86928982E+03</rscale>
<asrwt>0</asrwt>
<pdfrwt beam="1">  1        3 0.94811056E-01 0.86928982E+03</pdfrwt>
<pdfrwt beam="2">  1       -3 0.26885567E+00 0.86928982E+03</pdfrwt>
<totfact> 0.14622418E-01</totfact>
</mgrwt>
</event>
<event>
 5      1 +1.8937969e-08 7.04703100e+02 7.81665300e-03 9.70922300e-02
       -3 -1    0    0    0  501 -0.0000000000e+00 +0.0000000000e+00 +1.7220137791e+03 1.7220137817e+03 9.5000000000e-02 0.0000e+00 -1.0000e+00
        3 -1    0    0  502    0 +0.0000000000e+00 -0.0000000000e+00 -5.4725641144e+02 5.4725641969e+02 9.5000000000e-02 0.0000e+00 -1.0000e+00
  1000022  1    1    2    0    0 -1.2175030615e+02 -3.3112675369e+02 -1.2852369923e+02 7.1844995708e+02 6.1252260000e+02 0.0000e+00 1.0000e+00
  1000022  1    1    2    0    0 +2.3554204224e+02 +2.6042175139e+02 +1.1151055493e+03 1.3198272099e+03 6.1252260000e+02 0.0000e+00 1.0000e+00
       21  1    1    2  502  501 -1.1379173609e+02 +7.0705002301e+01 +1.8817551753e+02 2.3099303442e+02 0.0000000000e+00 0.0000e+00 -1.0000e+00
<mgrwt>
<rscale>  1 0.70470311E+03</rscale>
<asrwt>0</asrwt>
<pdfrwt beam="2">  1        3 0.84193297E-01 0.70470311E+03</pdfrwt>
<pdfrwt beam="1">  1       -3 0.26492519E+00 0.70470311E+03</pdfrwt>
<totfact> 0.20532984E-01</totfact>
</mgrwt>
</event>
<event>
 5      1 +1.8937969e-08 7.36738300e+02 7.81665300e-03 9.65638900e-02
        1 -1    0    0  502    0 +0.0000000000e+00 +0.0000000000e+00 +3.3282139561e+03 3.3282139561e+03 5.0000000000e-03 0.0000e+00 1.0000e+00
       -1 -1    0    0    0  501 -0.0000000000e+00 -0.0000000000e+00 -5.1335057668e+02 5.1335057670e+02 5.0000000000e-03 0.0000e+00 1.0000e+00
  1000022  1    1    2    0    0 -2.9950889467e+02 +2.5368982177e+02 -2.9969519038e+01 7.2811140030e+02 6.1252260000e+02 0.0000e+00 -1.0000e+00
  1000022  1    1    2    0    0 +2.3761650280e+02 -4.2881444732e+02 +1.0588382348e+03 1.3178261553e+03 6.1252260000e+02 0.0000e+00 -1.0000e+00
       21  1    1    2  502  501 +6.1892391874e+01 +1.7512462555e+02 +1.7859946637e+03 1.7956269772e+03 0.0000000000e+00 0.0000e+00 1.0000e+00
<mgrwt>
<rscale>  1 0.73673832E+03</rscale>
<asrwt>0</asrwt>
<pdfrwt beam="1">  1        1 0.51203290E+00 0.73673832E+03</pdfrwt>
<pdfrwt beam="2">  1       -1 0.78977014E-01 0.73673832E+03</pdfrwt>
<totfact> 0.59573651E-01</totfact>
</mgrwt>
</event>
<event>
 5      1 +1.8937969e-08 8.45640400e+02 7.81665300e-03 9.49620700e-02
       -3 -1    0    0    0  501 -0.0000000000e+00 +0.0000000000e+00 +5.4905444139e+02 5.4905444961e+02 9.5000000000e-02 0.0000e+00 1.0000e+00
       21 -1    0    0  501  502 +0.0000000000e+00 -0.0000000000e+00 -1.7290103385e+03 1.7290103385e+03 0.0000000000e+00 0.0000e+00 1.0000e+00
  1000022  1    1    2    0    0 -5.6007716173e+02 -4.4937083411e+01 -7.3769650187e+02 1.1113441559e+03 6.1252260000e+02 0.0000e+00 -1.0000e+00
  1000022  1    1    2    0    0 +5.8946666575e+02 +8.0288753633e+01 -1.4520831332e+02 8.6613314436e+02 6.1252260000e+02 0.0000e+00 -1.0000e+00
       -3  1    1    2    0  502 -2.9389504023e+01 -3.5351670221e+01 -2.9705108187e+02 3.0058748777e+02 9.5000000000e-02 0.0000e+00 -1.0000e+00
<mgrwt>
<rscale>  1 0.84564043E+03</rscale>
<asrwt>0</asrwt>
<pdfrwt beam="2">  1       21 0.26600159E+00 0.84564043E+03</pdfrwt>
<pdfrwt beam="1">  1       -3 0.84469916E-01 0.84564043E+03</pdfrwt>
<totfact> 0.25894458E+00</totfact>
</mgrwt>
</event>
<event>
 5      1 +1.8937969e-08 1.15895900e+03 7.81665300e-03 9.14955800e-02
        2 -1    0    0  502    0 +0.0000000000e+00 +0.0000000000e+00 +1.7669443319e+03 1.7669443319e+03 2.5000000000e-03 0.0000e+00 1.0000e+00
       -2 -1    0    0    0  501 -0.0000000000e+00 -0.0000000000e+00 -1.3745194388e+03 1.3745194388e+03 2.5000000000e-03 0.0000e+00 -1.0000e+00
  1000022  1    1    2    0    0 -4.8161036170e+02 +8.6658811958e+02 -8.4273969719e+02 1.4381646784e+03 6.1252260000e+02 0.0000e+00 -1.0000e+00
  1000022  1    1    2    0    0 +4.6232000013e+02 -8.2790334024e+02 +1.1772665325e+03 1.6310438827e+03 6.1252260000e+02 0.0000e+00 1.0000e+00
       21  1    1    2  502  501 +1.9290361574e+01 -3.8684779340e+01 +5.7898057824e+01 7.2255209515e+01 0.0000000000e+00 0.0000e+00 -1.0000e+00
<mgrwt>
<rscale>  1 0.11589588E+04</rscale>
<asrwt>0</asrwt>
<pdfrwt beam="1">  1        2 0.27183759E+00 0.11589588E+04</pdfrwt>
<pdfrwt beam="2">  1       -2 0.21146453E+00 0.11589588E+04</pdfrwt>
<totfact> 0.98377319E-01</totfact>
</mgrwt>
</event>
<event>
 5      1 +1.8937969e-08 8.61034700e+02 7.81665300e-03 9.47564500e-02
        3 -1    0    0  502    0 +0.0000000000e+00 +0.0000000000e+00 +2.1502411794e+03 2.1502411815e+03 9.5000000000e-02 0.0000e+00 1.0000e+00
       -3 -1    0    0    0  501 -0.0000000000e+00 -0.0000000000e+00 -3.6814489528e+02 3.6814490753e+02 9.5000000000e-02 0.0000e+00 1.0000e+00
  1000022  1    1    2    0    0 -6.1233536626e+02 +4.5876505593e+01 +7.1294476000e+02 1.1227347954e+03 6.1252260000e+02 0.0000e+00 -1.0000e+00
  1000022  1    1    2    0    0 +5.9103930857e+02 -6.2684508303e+01 +9.6617312877e+02 1.2891591299e+03 6.1252260000e+02 0.0000e+00 -1.0000e+00
       21  1    1    2  502  501 +2.1296057693e+01 +1.6808002710e+01 +1.0297839539e+02 1.0649216377e+02 0.0000000000e+00 0.0000e+00 1.0000e+00
<mgrwt>
<rscale>  1 0.86103468E+03</rscale>
<asrwt>0</asrwt>
<pdfrwt beam="1">  1        3 0.33080634E+00 0.86103468E+03</pdfrwt>
<pdfrwt beam="2">  1       -3 0.56637677E-01 0.86103468E+03</pdfrwt>
<totfact> 0.21182174E-01</totfact>
</mgrwt>
</event>
<event>
 5      1 +1.8937969e-08 7.68285500e+02 7.81665300e-03 9.60709200e-02
       -2 -1    0    0    0  501 -0.0000000000e+00 +0.0000000000e+00 +1.4656736697e+03 1.4656736697e+03 2.5000000000e-03 0.0000e+00 1.0000e+00
        2 -1    0    0  502    0 +0.0000000000e+00 -0.0000000000e+00 -6.6597918311e+02 6.6597918312e+02 2.5000000000e-03 0.0000e+00 -1.0000e+00
  1000022  1    1    2    0    0 -1.4836689659e+02 -4.1432743964e+02 +9.6778101652e+02 1.2269735102e+03 6.1252260000e+02 0.0000e+00 1.0000e+00
  1000022  1    1    2    0    0 +1.8238513932e+02 +4.3310733092e+02 -2.5207263285e+02 8.1213967203e+02 6.1252260000e+02 0.0000e+00 -1.0000e+00
       21  1    1    2  502  501 -3.4018242731e+01 -1.8779891287e+01 +8.3986102953e+01 9.2539670652e+01 0.0000000000e+00 0.0000e+00 1.0000e+00
<mgrwt>
<rscale>  1 0.76828552E+03</rscale>
<asrwt>0</asrwt>
<pdfrwt beam="2">  1        2 0.10245834E+00 0.76828552E+03</pdfrwt>
<pdfrwt beam="1">  1       -2 0.22548826E+00 0.76828552E+03</pdfrwt>
<totfact> 0.40714892E+00</totfact>
</mgrwt>
</event>
<event>
 5      1 +1.8937969e-08 8.75971100e+02 7.81665300e-03 9.45612700e-02
        3 -1    0    0  502    0 -0.0000000000e+00 +0.0000000000e+00 +8.1753004492e+02 8.1753005044e+02 9.5000000000e-02 0.0000e+00 -1.0000e+00
       21 -1    0    0  501  502 +0.0000000000e+00 -0.0000000000e+00 -1.0427470842e+03 1.0427470842e+03 0.0000000000e+00 0.0000e+00 -1.0000e+00
  1000022  1    1    2    0    0 +4.2241117541e+02 -4.0100365292e+02 -1.8759892500e+02 8.6580160715e+02 6.1252260000e+02 0.0000e+00 1.0000e+00
  1000022  1    1    2    0    0 -4.6775303750e+02 +4.7448632523e+02 -5.3716209251e+01 9.0664190482e+02 6.1252260000e+02 0.0000e+00 1.0000e+00
        3  1    1    2  501    0 +4.5341862091e+01 -7.3482672308e+01 +1.6098094963e+01 8.7833622685e+01 9.5000000000e-02 0.0000e+00 1.0000e+00
<mgrwt>
<rscale>  1 0.87597106E+03</rscale>
<asrwt>0</asrwt>
<pdfrwt beam="2">  1       21 0.16042263E+00 0.87597106E+03</pdfrwt>
<pdfrwt beam="1">  1        3 0.12577385E+00 0.87597106E+03</pdfrwt>
<totfact> 0.51881471E+00</totfact>
</mgrwt>
</event>
<event>
 5      1 +1.8937969e-08 7.69755600e+02 7.81665300e-03 9.60485700e-02
        2 -1    0    0  502    0 +0.0000000000e+00 +0.0000000000e+00 +2.2747448887e+03 2.2747448887e+03 2.5000000000e-03 0.0000e+00 -1.0000e+00
       -2 -1    0    0    0  501 -0.0000000000e+00 -0.0000000000e+00 -7.9297147364e+02 7.9297147364e+02 2.5000000000e-03 0.0000e+00 1.0000e+00
  1000022  1    1    2    0    0 -3.2300615792e+02 -6.5205147951e+01 +2.7974071432e+01 6.9609710067e+02 6.1252260000e+02 0.0000e+00 1.0000e+00
  1000022  1    1    2    0    0 +6.5402598331e+02 -1.6434576133e+02 +5.1342954033e+01 9.1245797194e+02 6.1252260000e+02 0.0000e+00 -1.0000e+00
       21  1    1    2  502  501 -3.3101982539e+02 +2.2955090928e+02 +1.4024563896e+03 1.4591612897e+03 0.0000000000e+00 0.0000e+00 -1.0000e+00
<mgrwt>
<rscale>  1 0.76975562E+03</rscale>
<asrwt>0</asrwt>
<pdfrwt beam="1">  1        2 0.34996075E+00 0.76975562E+03</pdfrwt>
<pdfrwt beam="2">  1       -2 0.12199561E+00 0.76975562E+03</pdfrwt>
<totfact> 0.24839710E+00</totfact>
</mgrwt>
</event>
<event>
 5      1 +1.8937969e-08 8.42675000e+02 7.81665300e-03 9.50022100e-02
       21 -1    0    0  501  502 +0.0000000000e+00 +0.0000000000e+00 +1.4264822725e+03 1.4264822725e+03 0.0000000000e+00 0.0000e+00 1.0000e+00
        3 -1    0    0  502    0 -0.0000000000e+00 -0.0000000000e+00 -5.7339778569e+02 5.7339779356e+02 9.5000000000e-02 0.0000e+00 1.0000e+00
  1000022  1    1    2    0    0 -2.6915815653e+02 +4.7932514007e+02 +2.0031248788e+02 8.4705828102e+02 6.1252260000e+02 0.0000e+00 -1.0000e+00
  1000022  1    1    2    0    0 +3.0159623181e+02 -5.4626401250e+02 +5.8368035715e+02 1.0512998398e+03 6.1252260000e+02 0.0000e+00 -1.0000e+00
        3  1    1    2  501    0 -3.2438075273e+01 +6.6938872435e+01 +6.9091641752e+01 1.0152194519e+02 9.5000000000e-02 0.0000e+00 -1.0000e+00
<mgrwt>
<rscale>  1 0.84267504E+03</rscale>
<asrwt>0</asrwt>
<pdfrwt beam="1">  1       21 0.21945881E+00 0.84267504E+03</pdfrwt>
<pdfrwt beam="2">  1        3 0.88215045E-01 0.84267504E+03</pdfrwt>
<totfact> 0.46538830E+00</totfact>
</mgrwt>
</event>
<event>
 5      1 +1.8937969e-08 7.73595100e+02 7.81665300e-03 9.59904400e-02
        2 -1    0    0  502    0 +0.0000000000e+00 +0.0000000000e+00 +1.9548265850e+03 1.9548265850e+03 2.5000000000e-03 0.0000e+00 -1.0000e+00
       -2 -1    0    0    0  501 -0.0000000000e+00 -0.0000000000e+00 -3.5026215948e+02 3.5026215948e+02 2.5000000000e-03 0.0000e+00 1.0000e+00
  1000022  1    1    2    0    0 +4.4529528839e+02 -1.3477805283e+00 +6.4136921688e+02 9.9238506551e+02 6.1252260000e+02 0.0000e+00 1.0000e+00
  1000022  1    1    2    0    0 -4.9300390202e+02 +4.3844334888e+01 +9.6888695244e+02 1.2485595842e+03 6.1252260000e+02 0.0000e+00 -1.0000e+00
       21  1    1    2  502  501 +4.7708613628e+01 -4.2496554360e+01 -5.6917438288e+00 6.4144094776e+01 0.0000000000e+00 0.0000e+00 -1.0000e+00
<mgrwt>
<rscale>  1 0.77359514E+03</rscale>
<asrwt>0</asrwt>
<pdfrwt beam="1">  1        2 0.30074256E+00 0.77359514E+03</pdfrwt>
<pdfrwt beam="2">  1       -2 0.53886485E-01 0.77359514E+03</pdfrwt>
<totfact> 0.23637821E+01</totfact>
</mgrwt>
</event>
<event>
 5      1 +1.8937969e-08 7.56494500e+02 7.81665300e-03 9.62521600e-02
       -3 -1    0    0    0  501 -0.0000000000e+00 +0.0000000000e+00 +4.1239937401e+02 4.1239938496e+02 9.5000000000e-02 0.0000e+00 1.0000e+00
        3 -1    0    0  502    0 +0.0000000000e+00 -0.0000000000e+00 -2.4179241779e+03 2.4179241797e+03 9.5000000000e-02 0.0000e+00 1.0000e+00
  1000022  1    1    2    0    0 +2.1825555333e+02 +3.9722866000e+02 -1.7469370995e+03 1.9058854268e+03 6.1252260000e+02 0.0000e+00 -1.0000e+00
  1000022  1    1    2    0    0 -2.0751245619e+02 -3.6143059620e+02 -3.5464105805e+02 8.2136941196e+02 6.1252260000e+02 0.0000e+00 -1.0000e+00
       21  1    1    2  502  501 -1.0743097137e+01 -3.5798063803e+01 +9.6053353706e+01 1.0306872594e+02 0.0000000000e+00 0.0000e+00 -1.0000e+00
<mgrwt>
<rscale>  1 0.75649447E+03</rscale>
<asrwt>0</asrwt>
<pdfrwt beam="2">  1        3 0.37198833E+00 0.75649447E+03</pdfrwt>
<pdfrwt beam="1">  1       -3 0.63446060E-01 0.75649447E+03</pdfrwt>
<totfact> 0.10126256E-01</totfact>
</mgrwt>
</event>
<event>
 5      1 +1.8937969e-08 1.30562400e+03 7.81665300e-03 9.11270000e-02
        2 -1    0    0  502    0 -0.0000000000e+00 +0.0000000000e+00 +8.7820707720e+02 8.7820707720e+02 2.5000000000e-03 0.0000e+00 1.0000e+00
       21 -1    0    0  501  502 +0.0000000000e+00 -0.0000000000e+00 -1.4721544235e+03 1.4721544235e+03 0.0000000000e+00 0.0000e+00 -1.0000e+00
  1000022  1    1    2    0    0 +7.8535854901e+01 -3.4904706016e+02 -4.3695143779e+02 8.3313397795e+02 6.1252260000e+02 0.0000e+00 -1.0000e+00
  1000022  1    1    2    0    0 +4.6624892375e+02 +5.2583534246e+02 -4.2942601333e+01 9.3323034070e+02 6.1252260000e+02 0.0000e+00 1.0000e+00
        2  1    1    2  501    0 -5.4478477865e+02 -1.7678828230e+02 -1.1405330721e+02 5.8399718209e+02 2.5000000000e-03 0.0000e+00 1.0000e+00
<mgrwt>
<rscale>  1 0.12001783E+04</rscale>
<asrwt>0</asrwt>
<pdfrwt beam="2">  1       21 0.22648529E+00 0.13056242E+04</pdfrwt>
<pdfrwt beam="1">  1        2 0.13510878E+00 0.13056242E+04</pdfrwt>
<totfact> 0.24099728E+01</totfact>
</mgrwt>
</event>
<event>
 5      1 +1.8937969e-08 8.71578900e+02 7.81665300e-03 9.46182400e-02
        3 -1    0    0  502    0 +0.0000000000e+00 +0.0000000000e+00 +2.4346013196e+03 2.4346013214e+03 9.5000000000e-02 0.0000e+00 -1.0000e+00
       -3 -1    0    0    0  501 -0.0000000000e+00 -0.0000000000e+00 -3.3787119983e+02 3.3787121319e+02 9.5000000000e-02 0.0000e+00 -1.0000e+00
  1000022  1    1    2    0    0 +5.2467050698e+02 +3.3644427132e+02 +8.5267802111e+02 1.2209494796e+03 6.1252260000e+02 0.0000e+00 1.0000e+00
  1000022  1    1    2    0    0 -5.4661664154e+02 -2.8694394478e+02 +1.1360353575e+03 1.4306945338e+03 6.1252260000e+02 0.0000e+00 1.0000e+00
       21  1    1    2  502  501 +2.1946134557e+01 -4.9500326544e+01 +1.0801674117e+02 1.2082852115e+02 0.0000000000e+00 0.0000e+00 1.0000e+00
<mgrwt>
<rscale>  1 0.87157894E+03</rscale>
<asrwt>0</asrwt>
<pdfrwt beam="1">  1        3 0.37455404E+00 0.87157894E+03</pdfrwt>
<pdfrwt beam="2">  1       -3 0.51980187E-01 0.87157894E+03</pdfrwt>
<totfact> 0.14755764E-01</totfact>
</mgrwt>
</event>
<event>
 5      1 +1.8937969e-08 6.44885000e+02 7.81665300e-03 9.81642500e-02
       -2 -1    0    0    0  501 -0.0000000000e+00 +0.0000000000e+00 +4.3036810867e+02 4.3036810867e+02 2.5000000000e-03 0.0000e+00 1.0000e+00
        2 -1    0    0  502    0 +0.0000000000e+00 -0.0000000000e+00 -1.0558077343e+03 1.0558077343e+03 2.5000000000e-03 0.0000e+00 -1.0000e+00
  1000022  1    1    2    0    0 +6.2978713456e+01 -1.8266581855e+02 -1.9953649226e+02 6.7255621837e+02 6.1252260000e+02 0.0000e+00 1.0000e+00
  1000022  1    1    2    0    0 -4.6318415820e+01 +2.0813351509e+02 -3.6180878847e+02 7.4266714662e+02 6.1252260000e+02 0.0000e+00 -1.0000e+00
       21  1    1    2  502  501 -1.6660297635e+01 -2.5467696531e+01 -6.4094344893e+01 7.0952477978e+01 0.0000000000e+00 0.0000e+00 -1.0000e+00
<mgrwt>
<rscale>  1 0.64488496E+03</rscale>
<asrwt>0</asrwt>
<pdfrwt beam="2">  1        2 0.16243196E+00 0.64488496E+03</pdfrwt>
<pdfrwt beam="1">  1       -2 0.66210479E-01 0.64488496E+03</pdfrwt>
<totfact> 0.49984270E+01</totfact>
</mgrwt>
</event>
<event>
 5      1 +1.8937969e-08 1.01607200e+03 7.81665300e-03 9.29109100e-02
        3 -1    0    0  502    0 +0.0000000000e+00 +0.0000000000e+00 +9.1657413350e+02 9.1657413842e+02 9.5000000000e-02 0.0000e+00 1.0000e+00
       -3 -1    0    0    0  501 -0.0000000000e+00 -0.0000000000e+00 -1.8388804885e+03 1.8388804909e+03 9.5000000000e-02 0.0000e+00 1.0000e+00
  1000022  1    1    2    0    0 +4.8045157349e+02 -6.5583729812e+02 -5.9110448476e+02 1.1770916377e+03 6.1252260000e+02 0.0000e+00 1.0000e+00
  1000022  1    1    2    0    0 -4.5454698510e+02 +6.6900693757e+02 -6.8448807363e+02 1.2238836148e+03 6.1252260000e+02 0.0000e+00 1.0000e+00
       21  1    1    2  502  501 -2.5904588395e+01 -1.3169639442e+01 +3.5328620341e+02 3.5447937686e+02 0.0000000000e+00 0.0000e+00 1.0000e+00
<mgrwt>
<rscale>  1 0.10160722E+04</rscale>
<asrwt>0</asrwt>
<pdfrwt beam="1">  1        3 0.14101141E+00 0.10160722E+04</pdfrwt>
<pdfrwt beam="2">  1       -3 0.28290469E+00 0.10160722E+04</pdfrwt>
<totfact> 0.45663811E-02</totfact>
</mgrwt>
</event>
<event>
 5      1 +1.8937969e-08 8.38087500e+02 7.81665300e-03 9.50646600e-02
        3 -1    0    0  502    0 +0.0000000000e+00 +0.0000000000e+00 +7.6131567965e+02 7.6131568558e+02 9.5000000000e-02 0.0000e+00 1.0000e+00
       -3 -1    0    0    0  501 -0.0000000000e+00 -0.0000000000e+00 -1.5421004798e+03 1.5421004827e+03 9.5000000000e-02 0.0000e+00 1.0000e+00
  1000022  1    1    2    0    0 -4.5380942725e+02 +9.3228766047e-01 -4.8811987399e+02 9.0520097896e+02 6.1252260000e+02 0.0000e+00 -1.0000e+00
  1000022  1    1    2    0    0 +6.2136400767e+02 +1.5830184099e+02 +1.4950593930e+02 8.9927118506e+02 6.1252260000e+02 0.0000e+00 -1.0000e+00
       21  1    1    2  502  501 -1.6755458042e+02 -1.5923412865e+02 -4.4217086545e+02 4.9894400428e+02 0.0000000000e+00 0.0000e+00 1.0000e+00
<mgrwt>
<rscale>  1 0.83808754E+03</rscale>
<asrwt>0</asrwt>
<pdfrwt beam="1">  1        3 0.11712549E+00 0.83808754E+03</pdfrwt>
<pdfrwt beam="2">  1       -3 0.23724623E+00 0.83808754E+03</pdfrwt>
<totfact> 0.13473642E-01</totfact>
</mgrwt>
</event>
<event>
 5      1 +1.8937969e-08 8.19230100e+02 7.81665300e-03 9.53259200e-02
       -3 -1    0    0    0  501 -0.0000000000e+00 +0.0000000000e+00 +8.0571820054e+02 8.0571820614e+02 9.5000000000e-02 0.0000e+00 1.0000e+00
        3 -1    0    0  502    0 +0.0000000000e+00 -0.0000000000e+00 -1.0123287499e+03 1.0123287543e+03 9.5000000000e-02 0.0000e+00 1.0000e+00
  1000022  1    1    2    0    0 +5.1270128256e+02 +1.8561182449e+02 -4.2485420888e+02 9.2357966026e+02 6.1252260000e+02 0.0000e+00 -1.0000e+00
  1000022  1    1    2    0    0 -5.1778273432e+02 -1.5996528914e+02 +1.6382322268e+02 8.3409222361e+02 6.1252260000e+02 0.0000e+00 -1.0000e+00
       21  1    1    2  502  501 +5.0814517585e+00 -2.5646535343e+01 +5.4420436861e+01 6.0375076606e+01 0.0000000000e+00 0.0000e+00 1.0000e+00
<mgrwt>
<rscale>  1 0.81923010E+03</rscale>
<asrwt>0</asrwt>
<pdfrwt beam="2">  1        3 0.15574289E+00 0.81923010E+03</pdfrwt>
<pdfrwt beam="1">  1       -3 0.12395665E+00 0.81923010E+03</pdfrwt>
<totfact> 0.39464488E-01</totfact>
</mgrwt>
</event>
<event>
 5      1 +1.8937969e-08 7.78367300e+02 7.81665300e-03 9.59186800e-02
       -3 -1    0    0    0  501 -0.0000000000e+00 +0.0000000000e+00 +1.5158829226e+03 1.5158829255e+03 9.5000000000e-02 0.0000e+00 -1.0000e+00
       21 -1    0    0  501  502 +0.0000000000e+00 -0.0000000000e+00 -8.1201028521e+02 8.1201028521e+02 0.0000000000e+00 0.0000e+00 -1.0000e+00
  1000022  1    1    2    0    0 +1.6475637672e+02 +4.9056353423e+02 +7.1989807942e+02 1.0776058765e+03 6.1252260000e+02 0.0000e+00 1.0000e+00
  1000022  1    1    2    0    0 -4.7472996341e+02 -1.9837978956e+02 -1.2732561702e+02 8.1001162172e+02 6.1252260000e+02 0.0000e+00 1.0000e+00
       -3  1    1    2    0  502 +3.0997358669e+02 -2.9218374467e+02 +1.1130017496e+02 4.4027571255e+02 9.5000000000e-02 0.0000e+00 1.0000e+00
<mgrwt>
<rscale>  1 0.77836734E+03</rscale>
<asrwt>0</asrwt>
<pdfrwt beam="2">  1       21 0.12492466E+00 0.77836734E+03</pdfrwt>
<pdfrwt beam="1">  1       -3 0.23321276E+00 0.77836734E+03</pdfrwt>
<totfact> 0.18978211E+00</totfact>
</mgrwt>
</event>
<event>
 5      1 +1.8937969e-08 8.55288700e+02 7.81665300e-03 9.48326600e-02
        3 -1    0    0  502    0 +0.0000000000e+00 +0.0000000000e+00 +9.8964013544e+02 9.8964014000e+02 9.5000000000e-02 0.0000e+00 -1.0000e+00
       -3 -1    0    0    0  501 -0.0000000000e+00 -0.0000000000e+00 -9.1269578861e+02 9.1269579356e+02 9.5000000000e-02 0.0000e+00 -1.0000e+00
  1000022  1    1    2    0    0 +7.5024044654e+01 +6.3748862080e+02 -1.1422581855e+02 8.9456795274e+02 6.1252260000e+02 0.0000e+00 1.0000e+00
  1000022  1    1    2    0    0 +5.6549393317e+01 -5.6999104564e+02 +1.9009166719e+02 8.5988743649e+02 6.1252260000e+02 0.0000e+00 1.0000e+00
       21  1    1    2  502  501 -1.3157343797e+02 -6.7497575166e+01 +1.0784981790e+00 1.4788054433e+02 0.0000000000e+00 0.0000e+00 -1.0000e+00
<mgrwt>
<rscale>  1 0.85528869E+03</rscale>
<asrwt>0</asrwt>
<pdfrwt beam="1">  1        3 0.15225233E+00 0.85528869E+03</pdfrwt>
<pdfrwt beam="2">  1       -3 0.14041474E+00 0.85528869E+03</pdfrwt>
<totfact> 0.30546427E-01</totfact>
</mgrwt>
</event>
<event>
 5      1 +1.8937969e-08 8.12414700e+02 7.81665300e-03 9.54221900e-02
       21 -1    0    0  501  502 +0.0000000000e+00 +0.0000000000e+00 +1.1691215819e+03 1.1691215819e+03 0.0000000000e+00 0.0000e+00 -1.0000e+00
        3 -1    0    0  502    0 -0.0000000000e+00 -0.0000000000e+00 -8.8038600003e+02 8.8038600515e+02 9.5000000000e-02 0.0000e+00 -1.0000e+00
  1000022  1    1    2    0    0 +4.1185666261e+01 +5.2960401773e+02 +3.7428343288e+02 8.9299983110e+02 6.1252260000e+02 0.0000e+00 1.0000e+00
  1000022  1    1    2    0    0 -1.2720878273e+01 -5.3482500891e+02 -3.5366937351e+02 8.8682894188e+02 6.1252260000e+02 0.0000e+00 1.0000e+00
        3  1    1    2  501    0 -2.8464787988e+01 +5.2209911744e+00 +2.6812152247e+02 2.6967881404e+02 9.5000000000e-02 0.0000e+00 1.0000e+00
<mgrwt>
<rscale>  1 0.81241472E+03</rscale>
<asrwt>0</asrwt>
<pdfrwt beam="1">  1       21 0.17986486E+00 0.81241472E+03</pdfrwt>
<pdfrwt beam="2">  1        3 0.13544400E+00 0.81241472E+03</pdfrwt>
<totfact> 0.31265963E+00</totfact>
</mgrwt>
</event>
<event>
 5      1 +1.8937969e-08 7.30034500e+02 7.81665300e-03 9.66720400e-02
        3 -1    0    0  502    0 +0.0000000000e+00 +0.0000000000e+00 +5.8930804035e+02 5.8930804800e+02 9.5000000000e-02 0.0000e+00 -1.0000e+00
       -3 -1    0    0    0  501 -0.0000000000e+00 -0.0000000000e+00 -1.2397220594e+03 1.2397220631e+03 9.5000000000e-02 0.0000e+00 -1.0000e+00
  1000022  1    1    2    0    0 -5.3669797140e+01 -3.7274428169e+02 -8.6299510276e+01 7.2418940039e+02 6.1252260000e+02 0.0000e+00 1.0000e+00
  1000022  1    1    2    0    0 +4.9465189596e+01 +4.0472882491e+02 -6.6938241351e+02 9.9474065852e+02 6.1252260000e+02 0.0000e+00 1.0000e+00
       21  1    1    2  502  501 +4.2046075445e+00 -3.1984543213e+01 +1.0526790469e+02 1.1010005217e+02 0.0000000000e+00 0.0000e+00 1.0000e+00
<mgrwt>
<rscale>  1 0.73003454E+03</rscale>
<asrwt>0</asrwt>
<pdfrwt beam="1">  1        3 0.90662777E-01 0.73003454E+03</pdfrwt>
<pdfrwt beam="2">  1       -3 0.19072647E+00 0.73003454E+03</pdfrwt>
<totfact> 0.47958790E-01</totfact>
</mgrwt>
</event>
<event>
 5      1 +1.8937969e-08 7.98273500e+02 7.81665300e-03 9.56251900e-02
       21 -1    0    0  501  502 +0.0000000000e+00 +0.0000000000e+00 +1.6148237300e+03 1.6148237300e+03 0.0000000000e+00 0.0000e+00 1.0000e+00
       -3 -1    0    0    0  501 -0.0000000000e+00 -0.0000000000e+00 -5.5139267950e+02 5.5139268768e+02 9.5000000000e-02 0.0000e+00 1.0000e+00
  1000022  1    1    2    0    0 +6.0698374810e+01 +4.6914643752e+02 +1.1534887133e+02 7.8247809565e+02 6.1252260000e+02 0.0000e+00 -1.0000e+00
  1000022  1    1    2    0    0 -1.6284694894e+02 -5.7645755048e+02 +7.6832866807e+02 1.1507976859e+03 6.1252260000e+02 0.0000e+00 -1.0000e+00
       -3  1    1    2    0  502 +1.0214857413e+02 +1.0731111296e+02 +1.7975351106e+02 2.3294063605e+02 9.5000000000e-02 0.0000e+00 -1.0000e+00
<mgrwt>
<rscale>  1 0.79827355E+03</rscale>
<asrwt>0</asrwt>
<pdfrwt beam="1">  1       21 0.24843442E+00 0.79827355E+03</pdfrwt>
<pdfrwt beam="2">  1       -3 0.84829644E-01 0.79827355E+03</pdfrwt>
<totfact> 0.33413698E+00</totfact>
</mgrwt>
</event>
<event>
 5      1 +1.8937969e-08 7.95655900e+02 7.81665300e-03 9.56632600e-02
        3 -1    0    0  502    0 +0.0000000000e+00 +0.0000000000e+00 +1.4691040103e+03 1.4691040134e+03 9.5000000000e-02 0.0000e+00 -1.0000e+00
       -3 -1    0    0    0  501 -0.0000000000e+00 -0.0000000000e+00 -6.7040614064e+02 6.7040614737e+02 9.5000000000e-02 0.0000e+00 -1.0000e+00
  1000022  1    1    2    0    0 -8.3790420413e+01 -4.6787247340e+02 +8.1405620415e+02 1.1241872286e+03 6.1252260000e+02 0.0000e+00 1.0000e+00
  1000022  1    1    2    0    0 +1.0477309583e+02 +5.7734850330e+02 +1.0096039076e+02 8.5421638470e+02 6.1252260000e+02 0.0000e+00 1.0000e+00
       21  1    1    2  502  501 -2.0982675420e+01 -1.0947602990e+02 -1.1631872524e+02 1.6110654745e+02 0.0000000000e+00 0.0000e+00 1.0000e+00
<mgrwt>
<rscale>  1 0.79565591E+03</rscale>
<asrwt>0</asrwt>
<pdfrwt beam="1">  1        3 0.22601600E+00 0.79565591E+03</pdfrwt>
<pdfrwt beam="2">  1       -3 0.10313941E+00 0.79565591E+03</pdfrwt>
<totfact> 0.21510769E-01</totfact>
</mgrwt>
</event>
<event>
 5      1 +1.8937969e-08 8.73569000e+02 7.81665300e-03 9.45923800e-02
        3 -1    0    0  502    0 +0.0000000000e+00 +0.0000000000e+00 +1.5356360163e+03 1.5356360192e+03 9.5000000000e-02 0.0000e+00 1.0000e+00
       -3 -1    0    0    0  501 -0.0000000000e+00 -0.0000000000e+00 -8.2766282592e+02 8.2766283137e+02 9.5000000000e-02 0.0000e+00 1.0000e+00
  1000022  1    1    2    0    0 -6.7415272871e+02 +3.0162092970e+02 +5.0201880535e+02 1.0828960722e+03 6.1252260000e+02 0.0000e+00 -1.0000e+00
  1000022  1    1    2    0    0 +3.7431717688e+02 -3.9403869817e+02 +4.0014299522e+02 9.1141549071e+02 6.1252260000e+02 0.0000e+00 -1.0000e+00
       21  1    1    2  502  501 +2.9983555183e+02 +9.2417768469e+01 -1.9418861023e+02 3.6898728760e+02 0.0000000000e+00 0.0000e+00 1.0000e+00
<mgrwt>
<rscale>  1 0.87356901E+03</rscale>
<asrwt>0</asrwt>
<pdfrwt beam="1">  1        3 0.23625169E+00 0.87356901E+03</pdfrwt>
<pdfrwt beam="2">  1       -3 0.12733274E+00 0.87356901E+03</pdfrwt>
<totfact> 0.11150431E-01</totfact>
</mgrwt>
</event>
<event>
 5      1 +1.8937969e-08 7.88619100e+02 7.81665300e-03 9.57663800e-02
       21 -1    0    0  501  502 +0.0000000000e+00 +0.0000000000e+00 +8.8768346103e+02 8.8768346103e+02 0.0000000000e+00 0.0000e+00 -1.0000e+00
       -3 -1    0    0    0  501 -0.0000000000e+00 -0.0000000000e+00 -9.0478469720e+02 9.0478470219e+02 9.5000000000e-02 0.0000e+00 -1.0000e+00
  1000022  1    1    2    0    0 +4.5922291724e+02 +1.1560129387e+02 +3.7300587196e+02 8.5939901262e+02 6.1252260000e+02 0.0000e+00 1.0000e+00
  1000022  1    1    2    0    0 -4.9139198234e+02 -1.1994407600e+02 -4.1106207758e+02 8.9443201464e+02 6.1252260000e+02 0.0000e+00 1.0000e+00
       -3  1    1    2    0  502 +3.2169065104e+01 +4.3427821263e+00 +2.0954969443e+01 3.8637135966e+01 9.5000000000e-02 0.0000e+00 1.0000e+00
<mgrwt>
<rscale>  1 0.78861908E+03</rscale>
<asrwt>0</asrwt>
<pdfrwt beam="1">  1       21 0.13656669E+00 0.78861908E+03</pdfrwt>
<pdfrwt beam="2">  1       -3 0.13919765E+00 0.78861908E+03</pdfrwt>
<totfact> 0.63525355E+00</totfact>
</mgrwt>
</event>
<event>
 6      1 +1.8937969e-08 1.75544500e+03 7.81665300e-03 8.73035900e-02
       21 -1    0    0  501  502 +0.0000000000e+00 +0.0000000000e+00 +9.2310399507e+02 9.2310399507e+02 0.0000000000e+00 0.0000e+00 -1.0000e+00
       -3 -1    0    0    0  501 -0.0000000000e+00 -0.0000000000e+00 -9.1707988599e+02 9.1707989091e+02 9.5000000000e-02 0.0000e+00 -1.0000e+00
       36  2    1    2    0    0 -7.6175597391e+00 -2.4301853498e+01 -7.3196284401e+01 1.7569703831e+03 1.7552602723e+03 0.0000e+00 0.0000e+00
  1000022  1    3    3    0    0 -5.2297413064e+02 -3.5268176317e+02 -1.3498068665e+02 8.8954487726e+02 6.1252260000e+02 0.0000e+00 1.0000e+00
  1000022  1    3    3    0    0 +5.1535657090e+02 +3.2837990967e+02 +6.1784402248e+01 8.6742550580e+02 6.1252260000e+02 0.0000e+00 1.0000e+00
       -3  1    1    2    0  502 +7.6175597391e+00 +2.4301853498e+01 +7.9220393479e+01 8.3213502917e+01 9.5000000000e-02 0.0000e+00 1.0000e+00
<mgrwt>
<rscale>  1 0.17554450E+04</rscale>
<asrwt>0</asrwt>
<pdfrwt beam="1">  1       21 0.14201600E+00 0.17554450E+04</pdfrwt>
<pdfrwt beam="2">  1       -3 0.14108921E+00 0.17554450E+04</pdfrwt>
<totfact> 0.49201358E+00</totfact>
</mgrwt>
</event>
<event>
 5      1 +1.8937969e-08 8.79673800e+02 7.81665300e-03 9.45135300e-02
        3 -1    0    0  502    0 -0.0000000000e+00 +0.0000000000e+00 +1.8249881058e+03 1.8249881082e+03 9.5000000000e-02 0.0000e+00 1.0000e+00
       21 -1    0    0  501  502 +0.0000000000e+00 -0.0000000000e+00 -7.5855279367e+02 7.5855279367e+02 0.0000000000e+00 0.0000e+00 -1.0000e+00
  1000022  1    1    2    0    0 +5.3001618124e+02 -3.3117998361e+02 +6.2554861590e+02 1.0756822673e+03 6.1252260000e+02 0.0000e+00 -1.0000e+00
  1000022  1    1    2    0    0 -5.5282185116e+02 +3.1707770633e+02 +7.7325049249e+02 1.1744149738e+03 6.1252260000e+02 0.0000e+00 -1.0000e+00
        3  1    1    2  501    0 +2.2805669920e+01 +1.4102277275e+01 -3.3236379630e+02 3.3344366079e+02 9.5000000000e-02 0.0000e+00 -1.0000e+00
<mgrwt>
<rscale>  1 0.87967375E+03</rscale>
<asrwt>0</asrwt>
<pdfrwt beam="2">  1       21 0.11670043E+00 0.87967375E+03</pdfrwt>
<pdfrwt beam="1">  1        3 0.28076740E+00 0.87967375E+03</pdfrwt>
<totfact> 0.12016769E+00</totfact>
</mgrwt>
</event>
<event>
 5      1 +1.8937969e-08 6.25868600e+02 7.81665300e-03 9.85314400e-02
        3 -1    0    0  502    0 +0.0000000000e+00 +0.0000000000e+00 +1.2473452474e+03 1.2473452510e+03 9.5000000000e-02 0.0000e+00 -1.0000e+00
       -3 -1    0    0    0  501 -0.0000000000e+00 -0.0000000000e+00 -7.2337208287e+02 7.2337208910e+02 9.5000000000e-02 0.0000e+00 -1.0000e+00
  1000022  1    1    2    0    0 -1.2422914342e+02 -1.9227367840e+01 -4.5181689671e+02 7.7144346223e+02 6.1252260000e+02 0.0000e+00 1.0000e+00
  1000022  1    1    2    0    0 +1.3409353744e+02 +7.2860629959e+01 +8.2411951540e+02 1.0380976155e+03 6.1252260000e+02 0.0000e+00 1.0000e+00
       21  1    1    2  502  501 -9.8643940250e+00 -5.3633262119e+01 +1.5167054584e+02 1.6117626236e+02 0.0000000000e+00 0.0000e+00 1.0000e+00
<mgrwt>
<rscale>  1 0.62586860E+03</rscale>
<asrwt>0</asrwt>
<pdfrwt beam="1">  1        3 0.19189927E+00 0.62586860E+03</pdfrwt>
<pdfrwt beam="2">  1       -3 0.11128801E+00 0.62586860E+03</pdfrwt>
<totfact> 0.29488254E-01</totfact>
</mgrwt>
</event>
<event>
 5      1 +1.8937969e-08 6.42308300e+02 7.81665300e-03 9.82132000e-02
       -2 -1    0    0    0  501 -0.0000000000e+00 +0.0000000000e+00 +5.6616597707e+02 5.6616597707e+02 2.5000000000e-03 0.0000e+00 1.0000e+00
        2 -1    0    0  502    0 +0.0000000000e+00 -0.0000000000e+00 -1.2645355666e+03 1.2645355666e+03 2.5000000000e-03 0.0000e+00 -1.0000e+00
  1000022  1    1    2    0    0 +1.9287214796e+01 +1.9623310615e+02 +1.1164722920e+02 6.5309146978e+02 6.1252260000e+02 0.0000e+00 1.0000e+00
  1000022  1    1    2    0    0 -4.1391525625e+01 -1.8807700472e+02 -8.8818594478e+02 1.0959673472e+03 6.1252260000e+02 0.0000e+00 -1.0000e+00
       21  1    1    2  502  501 +2.2104310829e+01 -8.1561014295e+00 +7.8169126074e+01 8.1642726675e+01 0.0000000000e+00 0.0000e+00 -1.0000e+00
<mgrwt>
<rscale>  1 0.64230835E+03</rscale>
<asrwt>0</asrwt>
<pdfrwt beam="2">  1        2 0.19454393E+00 0.64230835E+03</pdfrwt>
<pdfrwt beam="1">  1       -2 0.87102458E-01 0.64230835E+03</pdfrwt>
<totfact> 0.20426396E+01</totfact>
</mgrwt>
</event>
<event>
 5      1 +1.8937969e-08 6.36959300e+02 7.81665300e-03 9.83156200e-02
       -2 -1    0    0    0  501 -0.0000000000e+00 +0.0000000000e+00 +3.4943947471e+02 3.4943947472e+02 2.5000000000e-03 0.0000e+00 1.0000e+00
        2 -1    0    0  502    0 +0.0000000000e+00 -0.0000000000e+00 -3.5368194346e+03 3.5368194346e+03 2.5000000000e-03 0.0000e+00 -1.0000e+00
  1000022  1    1    2    0    0 +1.6098314648e+02 -5.0118528334e+01 -1.2860225927e+03 1.4343867975e+03 6.1252260000e+02 0.0000e+00 -1.0000e+00
  1000022  1    1    2    0    0 -1.1724455619e+02 -1.6870635731e+02 -1.2063903849e+02 6.5722586230e+02 6.1252260000e+02 0.0000e+00 1.0000e+00
       21  1    1    2  502  501 -4.3738590290e+01 +2.1882488564e+02 -1.7807183286e+03 1.7946462495e+03 0.0000000000e+00 0.0000e+00 -1.0000e+00
<mgrwt>
<rscale>  1 0.63695930E+03</rscale>
<asrwt>0</asrwt>
<pdfrwt beam="2">  1        2 0.54412604E+00 0.63695930E+03</pdfrwt>
<pdfrwt beam="1">  1       -2 0.53759922E-01 0.63695930E+03</pdfrwt>
<totfact> 0.27909737E+00</totfact>
</mgrwt>
</event>
<event>
 5      1 +1.8937969e-08 8.54018200e+02 7.81665300e-03 9.48496000e-02
       -3 -1    0    0    0  501 -0.0000000000e+00 +0.0000000000e+00 +4.1159238549e+02 4.1159239645e+02 9.5000000000e-02 0.0000e+00 1.0000e+00
        3 -1    0    0  502    0 +0.0000000000e+00 -0.0000000000e+00 -2.1225624398e+03 2.1225624419e+03 9.5000000000e-02 0.0000e+00 1.0000e+00
  1000022  1    1    2    0    0 +5.9987856008e+02 +2.1877475170e+01 -1.1084525808e+03 1.4014934784e+03 6.1252260000e+02 0.0000e+00 -1.0000e+00
  1000022  1    1    2    0    0 -5.8144942060e+02 -1.0654851891e+02 -6.0761743190e+02 1.0458579706e+03 6.1252260000e+02 0.0000e+00 -1.0000e+00
       21  1    1    2  502  501 -1.8429139479e+01 +8.4671043735e+01 +5.0999583517e+00 8.6803389359e+01 0.0000000000e+00 0.0000e+00 1.0000e+00
<mgrwt>
<rscale>  1 0.85401816E+03</rscale>
<asrwt>0</asrwt>
<pdfrwt beam="2">  1        3 0.32654806E+00 0.85401816E+03</pdfrwt>
<pdfrwt beam="1">  1       -3 0.63321908E-01 0.85401816E+03</pdfrwt>
<totfact> 0.17622288E-01</totfact>
</mgrwt>
</event>
<event>
 5      1 +1.8937969e-08 1.06064900e+03 7.81665300e-03 9.34939300e-02
       -2 -1    0    0    0  501 -0.0000000000e+00 +0.0000000000e+00 +1.7687854715e+03 1.7687854715e+03 2.5000000000e-03 0.0000e+00 1.0000e+00
       21 -1    0    0  501  502 +0.0000000000e+00 -0.0000000000e+00 -1.0588815977e+03 1.0588815977e+03 0.0000000000e+00 0.0000e+00 -1.0000e+00
  1000022  1    1    2    0    0 +7.4353876397e+02 -6.7132706367e+02 +3.8444127628e+02 1.2355197086e+03 6.1252260000e+02 0.0000e+00 -1.0000e+00
  1000022  1    1    2    0    0 +1.9664300066e+01 +3.8278306993e+02 +2.8013017967e+02 7.7496220320e+02 6.1252260000e+02 0.0000e+00 1.0000e+00
       -2  1    1    2    0  502 -7.6320306404e+02 +2.8854399374e+02 +4.5332417898e+01 8.1718515735e+02 2.5000000000e-03 0.0000e+00 1.0000e+00
<mgrwt>
<rscale>  1 0.96360100E+03</rscale>
<asrwt>0</asrwt>
<pdfrwt beam="2">  1       21 0.16290486E+00 0.10606488E+04</pdfrwt>
<pdfrwt beam="1">  1       -2 0.27212084E+00 0.10606488E+04</pdfrwt>
<totfact> 0.72044302E-01</totfact>
</mgrwt>
</event>
<event>
 5      1 +1.8937969e-08 6.34863300e+02 7.81665300e-03 9.83560400e-02
       21 -1    0    0  501  502 +0.0000000000e+00 +0.0000000000e+00 +5.8925362544e+02 5.8925362544e+02 0.0000000000e+00 0.0000e+00 -1.0000e+00
        3 -1    0    0  502    0 -0.0000000000e+00 -0.0000000000e+00 -3.0017565031e+03 3.0017565046e+03 9.5000000000e-02 0.0000e+00 1.0000e+00
  1000022  1    1    2    0    0 +1.6300581554e+02 -1.1354087527e+01 -2.5126280418e+03 2.5913670954e+03 6.1252260000e+02 0.0000e+00 1.0000e+00
  1000022  1    1    2    0    0 -1.8742046523e+02 +6.4747563015e+00 -2.2093659363e+02 6.7761734568e+02 6.1252260000e+02 0.0000e+00 1.0000e+00
        3  1    1    2  501    0 +2.4414649690e+01 +4.8793312253e+00 +3.2106175779e+02 3.2202568893e+02 9.5000000000e-02 0.0000e+00 -1.0000e+00
<mgrwt>
<rscale>  1 0.63486328E+03</rscale>
<asrwt>0</asrwt>
<pdfrwt beam="1">  1       21 0.90654406E-01 0.63486328E+03</pdfrwt>
<pdfrwt beam="2">  1        3 0.46180869E+00 0.63486328E+03</pdfrwt>
<totfact> 0.26347960E-01</totfact>
</mgrwt>
</event>
<event>
 5      1 +1.8937969e-08 8.71612500e+02 7.81665300e-03 9.46178000e-02
       -3 -1    0    0    0  501 -0.0000000000e+00 +0.0000000000e+00 +1.5509806048e+03 1.5509806077e+03 9.5000000000e-02 0.0000e+00 -1.0000e+00
        3 -1    0    0  502    0 +0.0000000000e+00 -0.0000000000e+00 -5.1594467060e+02 5.1594467934e+02 9.5000000000e-02 0.0000e+00 -1.0000e+00
  1000022  1    1    2    0    0 -1.3540149459e+02 -5.9418135909e+02 +4.1341620638e+02 9.5785277962e+02 6.1252260000e+02 0.0000e+00 1.0000e+00
  1000022  1    1    2    0    0 +1.5784825958e+02 +6.1282228764e+02 +5.6787559430e+02 1.0479188210e+03 6.1252260000e+02 0.0000e+00 1.0000e+00
       21  1    1    2  502  501 -2.2446764983e+01 -1.8640928548e+01 +5.3744133478e+01 6.1153686387e+01 0.0000000000e+00 0.0000e+00 1.0000e+00
<mgrwt>
<rscale>  1 0.87161248E+03</rscale>
<asrwt>0</asrwt>
<pdfrwt beam="2">  1        3 0.79376105E-01 0.87161248E+03</pdfrwt>
<pdfrwt beam="1">  1       -3 0.23861240E+00 0.87161248E+03</pdfrwt>
<totfact> 0.32713985E-01</totfact>
</mgrwt>
</event>
<event>
 5      1 +1.8937969e-08 7.99275600e+02 7.81665300e-03 9.56106600e-02
       -3 -1    0    0    0  501 -0.0000000000e+00 +0.0000000000e+00 +1.0360628893e+03 1.0360628937e+03 9.5000000000e-02 0.0000e+00 1.0000e+00
        3 -1    0    0  502    0 +0.0000000000e+00 -0.0000000000e+00 -1.0786136134e+03 1.0786136176e+03 9.5000000000e-02 0.0000e+00 1.0000e+00
  1000022  1    1    2    0    0 -2.2682614272e+02 +4.8790471319e+02 +1.5126865316e+02 8.2919674934e+02 6.1252260000e+02 0.0000e+00 -1.0000e+00
  1000022  1    1    2    0    0 +1.8881402283e+02 -4.6623062937e+02 -5.2546693600e+02 9.5095802816e+02 6.1252260000e+02 0.0000e+00 -1.0000e+00
       21  1    1    2  502  501 +3.8012119891e+01 -2.1674083818e+01 +3.3164755875e+02 3.3452173382e+02 0.0000000000e+00 0.0000e+00 1.0000e+00
<mgrwt>
<rscale>  1 0.79927561E+03</rscale>
<asrwt>0</asrwt>
<pdfrwt beam="2">  1        3 0.16594056E+00 0.79927561E+03</pdfrwt>
<pdfrwt beam="1">  1       -3 0.15939429E+00 0.79927561E+03</pdfrwt>
<totfact> 0.17551932E-01</totfact>
</mgrwt>
</event>
<event>
 5      1 +1.8937969e-08 7.37423300e+02 7.81665300e-03 9.65529000e-02
       -1 -1    0    0    0  501 -0.0000000000e+00 +0.0000000000e+00 +1.1608556505e+03 1.1608556505e+03 5.0000000000e-03 0.0000e+00 1.0000e+00
        1 -1    0    0  502    0 +0.0000000000e+00 -0.0000000000e+00 -6.6089659836e+02 6.6089659837e+02 5.0000000000e-03 0.0000e+00 -1.0000e+00
  1000022  1    1    2    0    0 +3.4815519852e+02 -2.1758270016e+02 +2.3569865705e+02 7.7413956500e+02 6.1252260000e+02 0.0000e+00 1.0000e+00
  1000022  1    1    2    0    0 -2.2324787343e+02 +3.7015760313e+02 +3.5624467709e+02 8.3003040282e+02 6.1252260000e+02 0.0000e+00 -1.0000e+00
       21  1    1    2  502  501 -1.2490732509e+02 -1.5257490297e+02 -9.1984282025e+01 2.1758228103e+02 0.0000000000e+00 0.0000e+00 -1.0000e+00
<mgrwt>
<rscale>  1 0.73742331E+03</rscale>
<asrwt>0</asrwt>
<pdfrwt beam="2">  1        1 0.10167640E+00 0.73742331E+03</pdfrwt>
<pdfrwt beam="1">  1       -1 0.17859318E+00 0.73742331E+03</pdfrwt>
<totfact> 0.65543023E+00</totfact>
</mgrwt>
</event>
<event>
 5      1 +1.8937969e-08 7.03449100e+02 7.81665300e-03 9.71135200e-02
       -3 -1    0    0    0  501 -0.0000000000e+00 +0.0000000000e+00 +1.9972386721e+03 1.9972386743e+03 9.5000000000e-02 0.0000e+00 1.0000e+00
        3 -1    0    0  502    0 +0.0000000000e+00 -0.0000000000e+00 -4.0856904762e+02 4.0856905866e+02 9.5000000000e-02 0.0000e+00 1.0000e+00
  1000022  1    1    2    0    0 -1.1997460930e+02 -3.4752856233e+02 +1.0720439598e+03 1.2882671291e+03 6.1252260000e+02 0.0000e+00 -1.0000e+00
  1000022  1    1    2    0    0 +2.2070467278e+02 +2.4640651895e+02 +6.2718243382e+02 9.3699971503e+02 6.1252260000e+02 0.0000e+00 -1.0000e+00
       21  1    1    2  502  501 -1.0073006348e+02 +1.0112204338e+02 -1.1055676920e+02 1.8054088889e+02 0.0000000000e+00 0.0000e+00 1.0000e+00
<mgrwt>
<rscale>  1 0.70344909E+03</rscale>
<asrwt>0</asrwt>
<pdfrwt beam="2">  1        3 0.62856778E-01 0.70344909E+03</pdfrwt>
<pdfrwt beam="1">  1       -3 0.30726749E+00 0.70344909E+03</pdfrwt>
<totfact> 0.22707570E-01</totfact>
</mgrwt>
</event>
<event>
 5      1 +1.8937969e-08 8.66548800e+02 7.81665300e-03 9.46839100e-02
        3 -1    0    0  502    0 +0.0000000000e+00 +0.0000000000e+00 +5.6468863063e+02 5.6468863862e+02 9.5000000000e-02 0.0000e+00 1.0000e+00
       -3 -1    0    0    0  501 -0.0000000000e+00 -0.0000000000e+00 -1.5192534780e+03 1.5192534809e+03 9.5000000000e-02 0.0000e+00 1.0000e+00
  1000022  1    1    2    0    0 -4.3653572433e+02 +4.0216041390e+02 -6.0191396792e+02 1.0439256666e+03 6.1252260000e+02 0.0000e+00 -1.0000e+00
  1000022  1    1    2    0    0 +5.0110035610e+02 -3.7812221520e+02 -2.4230698392e+02 9.0993108886e+02 6.1252260000e+02 0.0000e+00 -1.0000e+00
       21  1    1    2  502  501 -6.4564631771e+01 -2.4038198703e+01 -1.1034389549e+02 1.3008536407e+02 0.0000000000e+00 0.0000e+00 1.0000e+00
<mgrwt>
<rscale>  1 0.86654876E+03</rscale>
<asrwt>0</asrwt>
<pdfrwt beam="1">  1        3 0.86875175E-01 0.86654876E+03</pdfrwt>
<pdfrwt beam="2">  1       -3 0.23373130E+00 0.86654876E+03</pdfrwt>
<totfact> 0.28500822E-01</totfact>
</mgrwt>
</event>
<event>
 5      1 +1.8937969e-08 8.76284700e+02 7.81665300e-03 9.45572200e-02
       -3 -1    0    0    0  501 -0.0000000000e+00 +0.0000000000e+00 +1.0998635856e+03 1.0998635898e+03 9.5000000000e-02 0.0000e+00 1.0000e+00
        3 -1    0    0  502    0 +0.0000000000e+00 -0.0000000000e+00 -7.9018360042e+02 7.9018360613e+02 9.5000000000e-02 0.0000e+00 1.0000e+00
  1000022  1    1    2    0    0 -5.6176558609e+02 -2.0534982789e+02 +1.0421330741e+02 8.6243462041e+02 6.1252260000e+02 0.0000e+00 -1.0000e+00
  1000022  1    1    2    0    0 +6.2304780625e+02 +1.9196938023e+02 +2.7315602261e+02 9.3532826324e+02 6.1252260000e+02 0.0000e+00 -1.0000e+00
       21  1    1    2  502  501 -6.1282220158e+01 +1.3380447659e+01 -6.7689344790e+01 9.2284312238e+01 0.0000000000e+00 0.0000e+00 -1.0000e+00
<mgrwt>
<rscale>  1 0.87628474E+03</rscale>
<asrwt>0</asrwt>
<pdfrwt beam="2">  1        3 0.12156671E+00 0.87628474E+03</pdfrwt>
<pdfrwt beam="1">  1       -3 0.16920978E+00 0.87628474E+03</pdfrwt>
<totfact> 0.32998315E-01</totfact>
</mgrwt>
</event>
<event>
 5      1 +1.8937969e-08 7.26546100e+02 7.81665300e-03 9.67288200e-02
        2 -1    0    0  502    0 +0.0000000000e+00 +0.0000000000e+00 +9.9493978405e+02 9.9493978405e+02 2.5000000000e-03 0.0000e+00 -1.0000e+00
       -2 -1    0    0    0  501 -0.0000000000e+00 -0.0000000000e+00 -1.1408306321e+03 1.1408306321e+03 2.5000000000e-03 0.0000e+00 1.0000e+00
  1000022  1    1    2    0    0 -1.5895049800e+02 -3.6791022694e+02 -7.7068489484e+02 1.0629027889e+03 6.1252260000e+02 0.0000e+00 1.0000e+00
  1000022  1    1    2    0    0 +2.3981315903e+00 +3.6619496152e+02 +5.3915581757e+02 8.9441457502e+02 6.1252260000e+02 0.0000e+00 -1.0000e+00
       21  1    1    2  502  501 +1.5655236641e+02 +1.7152654214e+00 +8.5638229228e+01 1.7845305228e+02 0.0000000000e+00 0.0000e+00 1.0000e+00
<mgrwt>
<rscale>  1 0.72654610E+03</rscale>
<asrwt>0</asrwt>
<pdfrwt beam="1">  1        2 0.15306766E+00 0.72654610E+03</pdfrwt>
<pdfrwt beam="2">  1       -2 0.17551241E+00 0.72654610E+03</pdfrwt>
<totfact> 0.50642325E+00</totfact>
</mgrwt>
</event>
<event>
 5      1 +1.8937969e-08 7.58013000e+02 7.81665300e-03 9.62286200e-02
        3 -1    0    0  502    0 +0.0000000000e+00 +0.0000000000e+00 +6.4007049863e+02 6.4007050568e+02 9.5000000000e-02 0.0000e+00 -1.0000e+00
       -3 -1    0    0    0  501 -0.0000000000e+00 -0.0000000000e+00 -1.4155778102e+03 1.4155778133e+03 9.5000000000e-02 0.0000e+00 -1.0000e+00
  1000022  1    1    2    0    0 -3.8908667183e+02 -3.4042684882e+02 -7.6409947962e+02 1.1073891944e+03 6.1252260000e+02 0.0000e+00 1.0000e+00
  1000022  1    1    2    0    0 +3.4556584871e+02 +2.4582355119e+02 +1.4634070041e+02 7.5923942879e+02 6.1252260000e+02 0.0000e+00 1.0000e+00
       21  1    1    2  502  501 +4.3520823114e+01 +9.4603297630e+01 -1.5774853232e+02 1.8901969584e+02 0.0000000000e+00 0.0000e+00 1.0000e+00
<mgrwt>
<rscale>  1 0.75801296E+03</rscale>
<asrwt>0</asrwt>
<pdfrwt beam="1">  1        3 0.98472385E-01 0.75801296E+03</pdfrwt>
<pdfrwt beam="2">  1       -3 0.21778120E+00 0.75801296E+03</pdfrwt>
<totfact> 0.26792977E-01</totfact>
</mgrwt>
</event>
<event>
 5      1 +1.8937969e-08 6.24403000e+02 7.81665300e-03 9.85603200e-02
        2 -1    0    0  502    0 +0.0000000000e+00 +0.0000000000e+00 +1.1354910212e+03 1.1354910212e+03 2.5000000000e-03 0.0000e+00 -1.0000e+00
       -2 -1    0    0    0  501 -0.0000000000e+00 -0.0000000000e+00 -7.0364431514e+02 7.0364431515e+02 2.5000000000e-03 0.0000e+00 1.0000e+00
  1000022  1    1    2    0    0 -1.1153760694e+02 +1.2380550813e+01 +7.0033055401e+02 9.3714499209e+02 6.1252260000e+02 0.0000e+00 -1.0000e+00
  1000022  1    1    2    0    0 +1.2301167653e+02 +9.9379889849e+00 -4.1710867098e+02 7.5126174873e+02 6.1252260000e+02 0.0000e+00 1.0000e+00
       21  1    1    2  502  501 -1.1474069585e+01 -2.2318539798e+01 +1.4862482303e+02 1.5072859554e+02 0.0000000000e+00 0.0000e+00 -1.0000e+00
<mgrwt>
<rscale>  1 0.62440296E+03</rscale>
<asrwt>0</asrwt>
<pdfrwt beam="1">  1        2 0.17469092E+00 0.62440296E+03</pdfrwt>
<pdfrwt beam="2">  1       -2 0.10825297E+00 0.62440296E+03</pdfrwt>
<totfact> 0.14645953E+01</totfact>
</mgrwt>
</event>
<event>
 5      1 +1.8937969e-08 7.63478700e+02 7.81665300e-03 9.61443800e-02
        1 -1    0    0  502    0 -0.0000000000e+00 +0.0000000000e+00 +2.2011140679e+03 2.2011140679e+03 5.0000000000e-03 0.0000e+00 -1.0000e+00
       21 -1    0    0  501  502 +0.0000000000e+00 -0.0000000000e+00 -1.8449076771e+03 1.8449076771e+03 0.0000000000e+00 0.0000e+00 -1.0000e+00
  1000022  1    1    2    0    0 -7.0761904436e+00 +3.9610923425e+02 +1.0694461619e+03 1.2945468809e+03 6.1252260000e+02 0.0000e+00 1.0000e+00
  1000022  1    1    2    0    0 +6.4825161694e+02 -4.3974376996e+02 +6.8847599829e+02 1.2094576792e+03 6.1252260000e+02 0.0000e+00 1.0000e+00
        1  1    1    2  501    0 -6.4117542650e+02 +4.3634535713e+01 -1.4017157695e+03 1.5420171850e+03 5.0000000000e-03 0.0000e+00 -1.0000e+00
<mgrwt>
<rscale>  1 0.76347872E+03</rscale>
<asrwt>0</asrwt>
<pdfrwt beam="2">  1       21 0.28383195E+00 0.76347872E+03</pdfrwt>
<pdfrwt beam="1">  1        1 0.33863293E+00 0.76347872E+03</pdfrwt>
<totfact> 0.76285669E-01</totfact>
</mgrwt>
</event>
<event>
 5      1 +1.8937969e-08 8.44054200e+02 7.81665300e-03 9.49835200e-02
       -3 -1    0    0    0  501 -0.0000000000e+00 +0.0000000000e+00 +9.0717494221e+02 9.0717494719e+02 9.5000000000e-02 0.0000e+00 -1.0000e+00
        3 -1    0    0  502    0 +0.0000000000e+00 -0.0000000000e+00 -8.7676025913e+02 8.7676026428e+02 9.5000000000e-02 0.0000e+00 -1.0000e+00
  1000022  1    1    2    0    0 -5.0856467896e+02 +2.9812500295e+02 -2.2706943876e+02 8.7992102804e+02 6.1252260000e+02 0.0000e+00 1.0000e+00
  1000022  1    1    2    0    0 +4.9479375670e+02 -2.7506004677e+02 +2.2914943840e+02 8.6496953219e+02 6.1252260000e+02 0.0000e+00 1.0000e+00
       21  1    1    2  502  501 +1.3770922257e+01 -2.3064956180e+01 +2.8334683447e+01 3.9044651227e+01 0.0000000000e+00 0.0000e+00 -1.0000e+00
<mgrwt>
<rscale>  1 0.84405419E+03</rscale>
<asrwt>0</asrwt>
<pdfrwt beam="2">  1        3 0.13488619E+00 0.84405419E+03</pdfrwt>
<pdfrwt beam="1">  1       -3 0.13956538E+00 0.84405419E+03</pdfrwt>
<totfact> 0.42363495E-01</totfact>
</mgrwt>
</event>
<event>
 5      1 +1.8937969e-08 6.37495600e+02 7.81665300e-03 9.83053000e-02
        2 -1    0    0  502    0 +0.0000000000e+00 +0.0000000000e+00 +1.5224058338e+03 1.5224058338e+03 2.5000000000e-03 0.0000e+00 1.0000e+00
       -2 -1    0    0    0  501 -0.0000000000e+00 -0.0000000000e+00 -3.5174743352e+02 3.5174743353e+02 2.5000000000e-03 0.0000e+00 -1.0000e+00
  1000022  1    1    2    0    0 +1.9913367997e+02 -8.6277101647e+01 +2.2242612760e+02 6.8684443546e+02 6.1252260000e+02 0.0000e+00 -1.0000e+00
  1000022  1    1    2    0    0 -1.2793846400e+02 +9.7780938717e+01 +9.0016008684e+02 1.1006368520e+03 6.1252260000e+02 0.0000e+00 1.0000e+00
       21  1    1    2  502  501 -7.1195215968e+01 -1.1503837070e+01 +4.8072185851e+01 8.6671979881e+01 0.0000000000e+00 0.0000e+00 -1.0000e+00
<mgrwt>
<rscale>  1 0.63749557E+03</rscale>
<asrwt>0</asrwt>
<pdfrwt beam="1">  1        2 0.23421628E+00 0.63749557E+03</pdfrwt>
<pdfrwt beam="2">  1       -2 0.54114989E-01 0.63749557E+03</pdfrwt>
<totfact> 0.41095973E+01</totfact>
</mgrwt>
</event>
<event>
 5      1 +1.8937969e-08 1.01796000e+03 7.81665300e-03 9.28906300e-02
       21 -1    0    0  501  502 +0.0000000000e+00 +0.0000000000e+00 +5.0670467928e+02 5.0670467928e+02 0.0000000000e+00 0.0000e+00 1.0000e+00
        2 -1    0    0  502    0 -0.0000000000e+00 -0.0000000000e+00 -2.7075566185e+03 2.7075566185e+03 2.5000000000e-03 0.0000e+00 -1.0000e+00
  1000022  1    1    2    0    0 -7.1383491821e+02 +5.0442214507e+02 -1.6529392165e+03 1.9675858253e+03 6.1252260000e+02 0.0000e+00 -1.0000e+00
  1000022  1    1    2    0    0 +6.0796183604e+02 -3.4863602082e+02 -4.3919177518e+02 1.0291928974e+03 6.1252260000e+02 0.0000e+00 1.0000e+00
        2  1    1    2  501    0 +1.0587308217e+02 -1.5578612426e+02 -1.0872094750e+02 2.1748257510e+02 2.5000000000e-03 0.0000e+00 -1.0000e+00
<mgrwt>
<rscale>  1 0.10179598E+04</rscale>
<asrwt>0</asrwt>
<pdfrwt beam="1">  1       21 0.77954566E-01 0.10179598E+04</pdfrwt>
<pdfrwt beam="2">  1        2 0.41654717E+00 0.10179598E+04</pdfrwt>
<totfact> 0.41491127E+01</totfact>
</mgrwt>
</event>
<event>
 5      1 +1.8937969e-08 6.25198500e+02 7.81665300e-03 9.85446400e-02
        1 -1    0    0  502    0 +0.0000000000e+00 +0.0000000000e+00 +8.0560627694e+02 8.0560627695e+02 5.0000000000e-03 0.0000e+00 -1.0000e+00
       -1 -1    0    0    0  501 -0.0000000000e+00 -0.0000000000e+00 -1.0527227297e+03 1.0527227297e+03 5.0000000000e-03 0.0000e+00 1.0000e+00
  1000022  1    1    2    0    0 +8.2158431678e+00 +1.2114586910e+02 +4.0983247854e+02 7.4692062340e+02 6.1252260000e+02 0.0000e+00 -1.0000e+00
  1000022  1    1    2    0    0 +3.1075698611e+01 -1.3578353904e+02 -2.0976038287e+02 6.6225842558e+02 6.1252260000e+02 0.0000e+00 1.0000e+00
       21  1    1    2  502  501 -3.9291541778e+01 +1.4637669938e+01 -4.4718854840e+02 4.4914995765e+02 0.0000000000e+00 0.0000e+00 1.0000e+00
<mgrwt>
<rscale>  1 0.62519850E+03</rscale>
<asrwt>0</asrwt>
<pdfrwt beam="1">  1        1 0.12393943E+00 0.62519850E+03</pdfrwt>
<pdfrwt beam="2">  1       -1 0.16195734E+00 0.62519850E+03</pdfrwt>
<totfact> 0.65128527E+00</totfact>
</mgrwt>
</event>
<event>
 5      1 +1.8937969e-08 6.78003300e+02 7.81665300e-03 9.75560700e-02
        3 -1    0    0  502    0 -0.0000000000e+00 +0.0000000000e+00 +8.4875509155e+02 8.4875509687e+02 9.5000000000e-02 0.0000e+00 -1.0000e+00
       21 -1    0    0  501  502 +0.0000000000e+00 -0.0000000000e+00 -9.7289421333e+02 9.7289421333e+02 0.0000000000e+00 0.0000e+00 -1.0000e+00
  1000022  1    1    2    0    0 -2.8355680550e+02 -3.7088698476e+01 +5.0805669752e+02 8.4562732744e+02 6.1252260000e+02 0.0000e+00 1.0000e+00
  1000022  1    1    2    0    0 +3.1441829232e+02 +8.1180249513e-01 -6.2078074747e+02 9.2704487136e+02 6.1252260000e+02 0.0000e+00 1.0000e+00
        3  1    1    2  501    0 -3.0861486823e+01 +3.6276895981e+01 -1.1415071829e+01 4.8977111398e+01 9.5000000000e-02 0.0000e+00 1.0000e+00
<mgrwt>
<rscale>  1 0.67800334E+03</rscale>
<asrwt>0</asrwt>
<pdfrwt beam="2">  1       21 0.14967603E+00 0.67800334E+03</pdfrwt>
<pdfrwt beam="1">  1        3 0.13057771E+00 0.67800334E+03</pdfrwt>
<totfact> 0.59628867E+00</totfact>
</mgrwt>
</event>
<event>
 5      1 +1.8937969e-08 8.85106600e+02 7.81665300e-03 9.44439300e-02
        3 -1    0    0  502    0 +0.0000000000e+00 +0.0000000000e+00 +3.7439320158e+02 3.7439321363e+02 9.5000000000e-02 0.0000e+00 -1.0000e+00
       -3 -1    0    0    0  501 -0.0000000000e+00 -0.0000000000e+00 -2.4799690835e+03 2.4799690853e+03 9.5000000000e-02 0.0000e+00 -1.0000e+00
  1000022  1    1    2    0    0 +6.3598142058e+02 -5.7068134785e+01 -7.2384684746e+02 1.1431829833e+03 6.1252260000e+02 0.0000e+00 1.0000e+00
  1000022  1    1    2    0    0 -6.4034815487e+02 +9.8386549515e+00 -1.0407889368e+03 1.3669557802e+03 6.1252260000e+02 0.0000e+00 1.0000e+00
       21  1    1    2  502  501 +4.3667342892e+00 +4.7229479834e+01 -3.4094009759e+02 3.4422353533e+02 0.0000000000e+00 0.0000e+00 1.0000e+00
<mgrwt>
<rscale>  1 0.88510662E+03</rscale>
<asrwt>0</asrwt>
<pdfrwt beam="1">  1        3 0.57598957E-01 0.88510662E+03</pdfrwt>
<pdfrwt beam="2">  1       -3 0.38153370E+00 0.88510662E+03</pdfrwt>
<totfact> 0.10479172E-01</totfact>
</mgrwt>
</event>
<event>
 5      1 +1.8937969e-08 7.03083700e+02 7.81665300e-03 9.71197300e-02
        3 -1    0    0  502    0 +0.0000000000e+00 +0.0000000000e+00 +1.2748198543e+03 1.2748198578e+03 9.5000000000e-02 0.0000e+00 -1.0000e+00
       -3 -1    0    0    0  501 -0.0000000000e+00 -0.0000000000e+00 -6.2218169598e+02 6.2218170323e+02 9.5000000000e-02 0.0000e+00 -1.0000e+00
  1000022  1    1    2    0    0 +1.7719533972e+02 -2.9592585933e+02 -2.3544168954e+02 7.4134137031e+02 6.1252260000e+02 0.0000e+00 1.0000e+00
  1000022  1    1    2    0    0 -1.5319425575e+02 +3.0963129652e+02 +8.8077839948e+02 1.1270734423e+03 6.1252260000e+02 0.0000e+00 1.0000e+00
       21  1    1    2  502  501 -2.4001083974e+01 -1.3705437184e+01 +7.3014483782e+00 2.8586748482e+01 0.0000000000e+00 0.0000e+00 1.0000e+00
<mgrwt>
<rscale>  1 0.70308367E+03</rscale>
<asrwt>0</asrwt>
<pdfrwt beam="1">  1        3 0.19612613E+00 0.70308367E+03</pdfrwt>
<pdfrwt beam="2">  1       -3 0.95720262E-01 0.70308367E+03</pdfrwt>
<totfact> 0.39323153E-01</totfact>
</mgrwt>
</event>
<event>
 5      1 +1.8937969e-08 7.58430600e+02 7.81665300e-03 9.62221600e-02
        3 -1    0    0  502    0 +0.0000000000e+00 +0.0000000000e+00 +4.5359403229e+02 4.5359404223e+02 9.5000000000e-02 0.0000e+00 1.0000e+00
       -3 -1    0    0    0  501 -0.0000000000e+00 -0.0000000000e+00 -1.8538489449e+03 1.8538489473e+03 9.5000000000e-02 0.0000e+00 1.0000e+00
  1000022  1    1    2    0    0 -3.0456522972e+02 -3.3221927085e+02 -1.2934510771e+03 1.5004430170e+03 6.1252260000e+02 0.0000e+00 -1.0000e+00
  1000022  1    1    2    0    0 +2.8256466786e+02 +3.3349631721e+02 -1.4170858408e+02 7.6572047343e+02 6.1252260000e+02 0.0000e+00 -1.0000e+00
       21  1    1    2  502  501 +2.2000561853e+01 -1.2770463575e+00 +3.4904748579e+01 4.1279499060e+01 0.0000000000e+00 0.0000e+00 -1.0000e+00
<mgrwt>
<rscale>  1 0.75843061E+03</rscale>
<asrwt>0</asrwt>
<pdfrwt beam="1">  1        3 0.69783699E-01 0.75843061E+03</pdfrwt>
<pdfrwt beam="2">  1       -3 0.28520753E+00 0.75843061E+03</pdfrwt>
<totfact> 0.23857440E-01</totfact>
</mgrwt>
</event>
<event>
 5      1 +1.8937969e-08 6.87730400e+02 7.81665300e-03 9.73844800e-02
       -3 -1    0    0    0  501 -0.0000000000e+00 +0.0000000000e+00 +3.6941994366e+02 3.6941995588e+02 9.5000000000e-02 0.0000e+00 -1.0000e+00
        3 -1    0    0  502    0 +0.0000000000e+00 -0.0000000000e+00 -2.2412316807e+03 2.2412316827e+03 9.5000000000e-02 0.0000e+00 -1.0000e+00
  1000022  1    1    2    0    0 -6.9583635304e+01 +2.8327044322e+02 -1.5433365487e+03 1.6858694090e+03 6.1252260000e+02 0.0000e+00 1.0000e+00
  1000022  1    1    2    0    0 +1.4977019630e+02 -3.6737517359e+02 -2.1129607615e+02 7.5975364243e+02 6.1252260000e+02 0.0000e+00 1.0000e+00
       21  1    1    2  502  501 -8.0186560999e+01 +8.4104730370e+01 -1.1717911223e+02 1.6502858715e+02 0.0000000000e+00 0.0000e+00 -1.0000e+00
<mgrwt>
<rscale>  1 0.68773037E+03</rscale>
<asrwt>0</asrwt>
<pdfrwt beam="2">  1        3 0.34480487E+00 0.68773037E+03</pdfrwt>
<pdfrwt beam="1">  1       -3 0.56833840E-01 0.68773037E+03</pdfrwt>
<totfact> 0.18017124E-01</totfact>
</mgrwt>
</event>
<event>
 5      1 +1.8937969e-08 7.74151000e+02 7.81665300e-03 9.59820500e-02
       -3 -1    0    0    0  501 -0.0000000000e+00 +0.0000000000e+00 +1.6628098955e+03 1.6628098982e+03 9.5000000000e-02 0.0000e+00 1.0000e+00
        3 -1    0    0  502    0 +0.0000000000e+00 -0.0000000000e+00 -5.7935580688e+02 5.7935581467e+02 9.5000000000e-02 0.0000e+00 1.0000e+00
  1000022  1    1    2    0    0 -4.7512055918e+02 -6.5625387656e+01 +1.0496466596e+03 1.3065176167e+03 6.1252260000e+02 0.0000e+00 -1.0000e+00
  1000022  1    1    2    0    0 +4.6616457136e+02 -9.2465013096e+01 +4.7430703802e+01 7.7671925006e+02 6.1252260000e+02 0.0000e+00 -1.0000e+00
       21  1    1    2  502  501 +8.9559878145e+00 +1.5809040075e+02 -1.3623274730e+01 1.5892884616e+02 0.0000000000e+00 0.0000e+00 1.0000e+00
<mgrwt>
<rscale>  1 0.77415103E+03</rscale>
<asrwt>0</asrwt>
<pdfrwt beam="2">  1        3 0.89131663E-01 0.77415103E+03</pdfrwt>
<pdfrwt beam="1">  1       -3 0.25581691E+00 0.77415103E+03</pdfrwt>
<totfact> 0.20174455E-01</totfact>
</mgrwt>
</event>
<event>
 5      1 +1.8937969e-08 6.55694400e+02 7.81665300e-03 9.79615200e-02
       -2 -1    0    0    0  501 -0.0000000000e+00 +0.0000000000e+00 +1.4025596179e+02 1.4025596181e+02 2.5000000000e-03 0.0000e+00 1.0000e+00
        2 -1    0    0  502    0 +0.0000000000e+00 -0.0000000000e+00 -4.0477441087e+03 4.0477441087e+03 2.5000000000e-03 0.0000e+00 -1.0000e+00
  1000022  1    1    2    0    0 +2.3761325822e+02 -3.5550453543e+01 -2.8275954225e+03 2.9031368731e+03 6.1252260000e+02 0.0000e+00 -1.0000e+00
  1000022  1    1    2    0    0 -2.1865969752e+02 +1.7240032771e+01 -1.0771198640e+03 1.2583641837e+03 6.1252260000e+02 0.0000e+00 1.0000e+00
       21  1    1    2  502  501 -1.8953560707e+01 +1.8310420772e+01 -2.7728605060e+00 2.6499013712e+01 0.0000000000e+00 0.0000e+00 1.0000e+00
<mgrwt>
<rscale>  1 0.65569443E+03</rscale>
<asrwt>0</asrwt>
<pdfrwt beam="2">  1        2 0.62272977E+00 0.65569443E+03</pdfrwt>
<pdfrwt beam="1">  1       -2 0.21577843E-01 0.65569443E+03</pdfrwt>
<totfact> 0.65936439E+00</totfact>
</mgrwt>
</event>
<event>
 5      1 +1.8937969e-08 1.00007200e+03 7.81665300e-03 9.30846500e-02
        2 -1    0    0  502    0 +0.0000000000e+00 +0.0000000000e+00 +1.6441177720e+03 1.6441177720e+03 2.5000000000e-03 0.0000e+00 -1.0000e+00
       -2 -1    0    0    0  501 -0.0000000000e+00 -0.0000000000e+00 -8.4422718360e+02 8.4422718360e+02 2.5000000000e-03 0.0000e+00 1.0000e+00
  1000022  1    1    2    0    0 -5.5714459145e+02 +5.4883763423e+02 +1.5866114631e+02 1.0059772062e+03 6.1252260000e+02 0.0000e+00 1.0000e+00
  1000022  1    1    2    0    0 +5.8425234835e+02 -5.4571297084e+02 +1.8337515423e+02 1.0237010481e+03 6.1252260000e+02 0.0000e+00 -1.0000e+00
       21  1    1    2  502  501 -2.7107756893e+01 -3.1246633970e+00 +4.5785428787e+02 4.5866670135e+02 0.0000000000e+00 0.0000e+00 1.0000e+00
<mgrwt>
<rscale>  1 0.10000724E+04</rscale>
<asrwt>0</asrwt>
<pdfrwt beam="1">  1        2 0.25294119E+00 0.10000724E+04</pdfrwt>
<pdfrwt beam="2">  1       -2 0.12988111E+00 0.10000724E+04</pdfrwt>
<totfact> 0.45615601E+00</totfact>
</mgrwt>
</event>
<event>
 5      1 +1.8937969e-08 7.00425100e+02 7.81665300e-03 9.71650500e-02
       -2 -1    0    0    0  501 -0.0000000000e+00 +0.0000000000e+00 +4.8155279929e+02 4.8155279929e+02 2.5000000000e-03 0.0000e+00 1.0000e+00
        2 -1    0    0  502    0 +0.0000000000e+00 -0.0000000000e+00 -1.3310838139e+03 1.3310838139e+03 2.5000000000e-03 0.0000e+00 -1.0000e+00
  1000022  1    1    2    0    0 -6.3816955925e+00 +3.2694554492e+02 -5.3758656468e+02 8.7813288597e+02 6.1252260000e+02 0.0000e+00 -1.0000e+00
  1000022  1    1    2    0    0 +6.3026053336e+01 -3.4283448936e+02 -9.6702938078e+01 7.1136710933e+02 6.1252260000e+02 0.0000e+00 1.0000e+00
       21  1    1    2  502  501 -5.6644357744e+01 +1.5888944434e+01 -2.1524151185e+02 2.2313661789e+02 0.0000000000e+00 0.0000e+00 -1.0000e+00
<mgrwt>
<rscale>  1 0.70042512E+03</rscale>
<asrwt>0</asrwt>
<pdfrwt beam="2">  1        2 0.20478212E+00 0.70042512E+03</pdfrwt>
<pdfrwt beam="1">  1       -2 0.74085047E-01 0.70042512E+03</pdfrwt>
<totfact> 0.26710618E+01</totfact>
</mgrwt>
</event>
<event>
 5      1 +1.8937969e-08 7.11380000e+02 7.81665300e-03 9.69796600e-02
        3 -1    0    0  502    0 +0.0000000000e+00 +0.0000000000e+00 +6.8969315617e+02 6.8969316271e+02 9.5000000000e-02 0.0000e+00 1.0000e+00
       -3 -1    0    0    0  501 -0.0000000000e+00 -0.0000000000e+00 -1.1775521568e+03 1.1775521606e+03 9.5000000000e-02 0.0000e+00 1.0000e+00
  1000022  1    1    2    0    0 -2.6399368770e+02 +2.3527679077e+02 -7.4676601632e+02 1.0285384067e+03 6.1252260000e+02 0.0000e+00 -1.0000e+00
  1000022  1    1    2    0    0 +2.4404227900e+02 -2.7056393023e+02 +3.0682485897e+02 7.7594259058e+02 6.1252260000e+02 0.0000e+00 -1.0000e+00
       21  1    1    2  502  501 +1.9951408701e+01 +3.5287139459e+01 -4.7917843290e+01 6.2764326061e+01 0.0000000000e+00 0.0000e+00 1.0000e+00
<mgrwt>
<rscale>  1 0.71137998E+03</rscale>
<asrwt>0</asrwt>
<pdfrwt beam="1">  1        3 0.10610664E+00 0.71137998E+03</pdfrwt>
<pdfrwt beam="2">  1       -3 0.18116187E+00 0.71137998E+03</pdfrwt>
<totfact> 0.38414332E-01</totfact>
</mgrwt>
</event>
<event>
 5      1 +1.8937969e-08 8.50826800e+02 7.81665300e-03 9.48922800e-02
       21 -1    0    0  501  502 +0.0000000000e+00 +0.0000000000e+00 +1.3401668323e+03 1.3401668323e+03 0.0000000000e+00 0.0000e+00 1.0000e+00
       -3 -1    0    0    0  501 -0.0000000000e+00 -0.0000000000e+00 -6.2304511956e+02 6.2304512681e+02 9.5000000000e-02 0.0000e+00 1.0000e+00
  1000022  1    1    2    0    0 +4.4988751256e+02 -4.1649827016e+02 +1.3768120570e+02 8.7750192759e+02 6.1252260000e+02 0.0000e+00 -1.0000e+00
  1000022  1    1    2    0    0 -3.9003030314e+02 +4.0170454970e+02 +4.5399640709e+02 9.4593173949e+02 6.1252260000e+02 0.0000e+00 -1.0000e+00
       -3  1    1    2    0  502 -5.9857209419e+01 +1.4793720462e+01 +1.2544409990e+02 1.3977829198e+02 9.5000000000e-02 0.0000e+00 -1.0000e+00
<mgrwt>
<rscale>  1 0.85082681E+03</rscale>
<asrwt>0</asrwt>
<pdfrwt beam="1">  1       21 0.20617951E+00 0.85082681E+03</pdfrwt>
<pdfrwt beam="2">  1       -3 0.95853096E-01 0.85082681E+03</pdfrwt>
<totfact> 0.46926969E+00</totfact>
</mgrwt>
</event>
<event>
 5      1 +1.8937969e-08 8.16973600e+02 7.81665300e-03 9.53576800e-02
       -2 -1    0    0    0  501 -0.0000000000e+00 +0.0000000000e+00 +5.0239374570e+02 5.0239374571e+02 2.5000000000e-03 0.0000e+00 1.0000e+00
        2 -1    0    0  502    0 +0.0000000000e+00 -0.0000000000e+00 -1.5381510832e+03 1.5381510832e+03 2.5000000000e-03 0.0000e+00 -1.0000e+00
  1000022  1    1    2    0    0 +7.4809667593e+01 +5.3446916592e+02 -3.7207410241e+02 8.9714929019e+02 6.1252260000e+02 0.0000e+00 1.0000e+00
  1000022  1    1    2    0    0 -5.5225191899e+01 -5.3901170422e+02 -4.5912212737e+02 9.3784886973e+02 6.1252260000e+02 0.0000e+00 -1.0000e+00
       21  1    1    2  502  501 -1.9584475695e+01 +4.5425383009e+00 -2.0456110776e+02 2.0554666903e+02 0.0000000000e+00 0.0000e+00 1.0000e+00
<mgrwt>
<rscale>  1 0.81697363E+03</rscale>
<asrwt>0</asrwt>
<pdfrwt beam="2">  1        2 0.23663863E+00 0.81697363E+03</pdfrwt>
<pdfrwt beam="1">  1       -2 0.77291346E-01 0.81697363E+03</pdfrwt>
<totfact> 0.18338664E+01</totfact>
</mgrwt>
</event>
<event>
 5      1 +1.8937969e-08 7.19041700e+02 7.81665300e-03 9.68521100e-02
       -3 -1    0    0    0  501 -0.0000000000e+00 +0.0000000000e+00 +1.2771539863e+03 1.2771539899e+03 9.5000000000e-02 0.0000e+00 -1.0000e+00
        3 -1    0    0  502    0 +0.0000000000e+00 -0.0000000000e+00 -6.3621613895e+02 6.3621614604e+02 9.5000000000e-02 0.0000e+00 -1.0000e+00
  1000022  1    1    2    0    0 +3.1937612083e+02 +1.5216983644e+02 -2.3403743487e+02 7.4505987820e+02 6.1252260000e+02 0.0000e+00 1.0000e+00
  1000022  1    1    2    0    0 -3.3563865249e+02 -1.8408532144e+02 +8.7209380405e+02 1.1323746064e+03 6.1252260000e+02 0.0000e+00 1.0000e+00
       21  1    1    2  502  501 +1.6262531668e+01 +3.1915484995e+01 +2.8814781929e+00 3.5935651313e+01 0.0000000000e+00 0.0000e+00 -1.0000e+00
<mgrwt>
<rscale>  1 0.71904169E+03</rscale>
<asrwt>0</asrwt>
<pdfrwt beam="2">  1        3 0.97879408E-01 0.71904169E+03</pdfrwt>
<pdfrwt beam="1">  1       -3 0.19648523E+00 0.71904169E+03</pdfrwt>
<totfact> 0.36926508E-01</totfact>
</mgrwt>
</event>
<event>
 5      1 +1.8937969e-08 1.12034100e+03 7.81665300e-03 9.18559000e-02
        2 -1    0    0  502    0 +0.0000000000e+00 +0.0000000000e+00 +1.5687326256e+03 1.5687326256e+03 2.5000000000e-03 0.0000e+00 -1.0000e+00
       -2 -1    0    0    0  501 -0.0000000000e+00 -0.0000000000e+00 -1.0059826808e+03 1.0059826808e+03 2.5000000000e-03 0.0000e+00 1.0000e+00
  1000022  1    1    2    0    0 -3.7710101455e+02 -8.4759178346e+02 +5.8633407710e+02 1.2568168490e+03 6.1252260000e+02 0.0000e+00 -1.0000e+00
  1000022  1    1    2    0    0 +3.8333382991e+02 +8.7300740231e+02 +1.4929638154e+02 1.1430485968e+03 6.1252260000e+02 0.0000e+00 1.0000e+00
       21  1    1    2  502  501 -6.2328153519e+00 -2.5415618846e+01 -1.7288051381e+02 1.7484986052e+02 0.0000000000e+00 0.0000e+00 1.0000e+00
<mgrwt>
<rscale>  1 0.11203408E+04</rscale>
<asrwt>0</asrwt>
<pdfrwt beam="1">  1        2 0.24134348E+00 0.11203408E+04</pdfrwt>
<pdfrwt beam="2">  1       -2 0.15476657E+00 0.11203408E+04</pdfrwt>
<totfact> 0.31354217E+00</totfact>
</mgrwt>
</event>
<event>
 5      1 +1.8937969e-08 7.96322800e+02 7.81665300e-03 9.56535500e-02
       -3 -1    0    0    0  501 -0.0000000000e+00 +0.0000000000e+00 +5.7833300471e+02 5.7833301252e+02 9.5000000000e-02 0.0000e+00 -1.0000e+00
        3 -1    0    0  502    0 +0.0000000000e+00 -0.0000000000e+00 -1.4185939306e+03 1.4185939338e+03 9.5000000000e-02 0.0000e+00 -1.0000e+00
  1000022  1    1    2    0    0 +3.1491711088e+01 +4.8831643319e+02 -8.2820638415e+02 1.1404185271e+03 6.1252260000e+02 0.0000e+00 1.0000e+00
  1000022  1    1    2    0    0 -7.7906530523e+00 -5.1665674831e+02 +2.8217489413e+01 8.0185725168e+02 6.1252260000e+02 0.0000e+00 1.0000e+00
       21  1    1    2  502  501 -2.3701058036e+01 +2.8340315119e+01 -4.0272031140e+01 5.4651167464e+01 0.0000000000e+00 0.0000e+00 -1.0000e+00
<mgrwt>
<rscale>  1 0.79632280E+03</rscale>
<asrwt>0</asrwt>
<pdfrwt beam="2">  1        3 0.21824522E+00 0.79632280E+03</pdfrwt>
<pdfrwt beam="1">  1       -3 0.88974310E-01 0.79632280E+03</pdfrwt>
<totfact> 0.33771970E-01</totfact>
</mgrwt>
</event>
<event>
 5      1 +1.8937969e-08 7.29838500e+02 7.81665300e-03 9.66752200e-02
       21 -1    0    0  501  502 +0.0000000000e+00 +0.0000000000e+00 +8.1608512890e+02 8.1608512890e+02 0.0000000000e+00 0.0000e+00 -1.0000e+00
       -3 -1    0    0    0  501 -0.0000000000e+00 -0.0000000000e+00 -1.1559559124e+03 1.1559559164e+03 9.5000000000e-02 0.0000e+00 -1.0000e+00
  1000022  1    1    2    0    0 +2.3495886085e+02 +1.6060834419e+02 +3.0939408197e+02 7.4290601020e+02 6.1252260000e+02 0.0000e+00 1.0000e+00
  1000022  1    1    2    0    0 -3.9292475165e+02 -1.7829827809e+02 -7.3412014898e+02 1.0489501728e+03 6.1252260000e+02 0.0000e+00 1.0000e+00
       -3  1    1    2    0  502 +1.5796589080e+02 +1.7689933893e+01 +8.4855283454e+01 1.8018486222e+02 9.5000000000e-02 0.0000e+00 1.0000e+00
<mgrwt>
<rscale>  1 0.72983852E+03</rscale>
<asrwt>0</asrwt>
<pdfrwt beam="1">  1       21 0.12555156E+00 0.72983852E+03</pdfrwt>
<pdfrwt beam="2">  1       -3 0.17783937E+00 0.72983852E+03</pdfrwt>
<totfact> 0.41960281E+00</totfact>
</mgrwt>
</event>
<event>
 5      1 +1.8937969e-08 7.29989700e+02 7.81665300e-03 9.66727700e-02
       -2 -1    0    0    0  501 -0.0000000000e+00 +0.0000000000e+00 +2.5062561514e+02 2.5062561516e+02 2.5000000000e-03 0.0000e+00 1.0000e+00
        2 -1    0    0  502    0 +0.0000000000e+00 -0.0000000000e+00 -2.8164259922e+03 2.8164259922e+03 2.5000000000e-03 0.0000e+00 -1.0000e+00
  1000022  1    1    2    0    0 -5.8028821462e+00 -3.8729157764e+02 -1.3337279948e+03 1.5179073552e+03 6.1252260000e+02 0.0000e+00 1.0000e+00
  1000022  1    1    2    0    0 +2.2586648051e+01 +4.0701404893e+02 -1.2903445489e+03 1.4853765795e+03 6.1252260000e+02 0.0000e+00 -1.0000e+00
       21  1    1    2  502  501 -1.6783765905e+01 -1.9722471299e+01 +5.8272166571e+01 6.3767672601e+01 0.0000000000e+00 0.0000e+00 1.0000e+00
<mgrwt>
<rscale>  1 0.72998968E+03</rscale>
<asrwt>0</asrwt>
<pdfrwt beam="2">  1        2 0.43329629E+00 0.72998968E+03</pdfrwt>
<pdfrwt beam="1">  1       -2 0.38557789E-01 0.72998968E+03</pdfrwt>
<totfact> 0.15209228E+01</totfact>
</mgrwt>
</event>
<event>
 5      1 +1.8937969e-08 1.14113700e+03 7.81665300e-03 9.16599900e-02
       -1 -1    0    0    0  501 -0.0000000000e+00 +0.0000000000e+00 +3.6654135074e+03 3.6654135074e+03 5.0000000000e-03 0.0000e+00 1.0000e+00
        1 -1    0    0  502    0 +0.0000000000e+00 -0.0000000000e+00 -1.0493719413e+03 1.0493719413e+03 5.0000000000e-03 0.0000e+00 -1.0000e+00
  1000022  1    1    2    0    0 +7.6946065868e+02 +2.6804019122e+02 -4.8517047273e+01 1.0205160894e+03 6.1252260000e+02 0.0000e+00 -1.0000e+00
  1000022  1    1    2    0    0 -1.2152641515e+03 -3.7906595092e+02 +5.2685097056e+02 1.5077512506e+03 6.1252260000e+02 0.0000e+00 1.0000e+00
       21  1    1    2  502  501 +4.4580349281e+02 +1.1102575970e+02 +2.1377076428e+03 2.1865181087e+03 0.0000000000e+00 0.0000e+00 1.0000e+00
<mgrwt>
<rscale>  1 0.11411375E+04</rscale>
<asrwt>0</asrwt>
<pdfrwt beam="2">  1        1 0.16144184E+00 0.11411375E+04</pdfrwt>
<pdfrwt beam="1">  1       -1 0.56390977E+00 0.11411375E+04</pdfrwt>
<totfact> 0.85884431E-03</totfact>
</mgrwt>
</event>
<event>
 5      1 +1.8937969e-08 8.70272800e+02 7.81665300e-03 9.46352400e-02
        2 -1    0    0  502    0 +0.0000000000e+00 +0.0000000000e+00 +1.5303155434e+03 1.5303155434e+03 2.5000000000e-03 0.0000e+00 -1.0000e+00
       -2 -1    0    0    0  501 -0.0000000000e+00 -0.0000000000e+00 -5.4214359329e+02 5.4214359329e+02 2.5000000000e-03 0.0000e+00 1.0000e+00
  1000022  1    1    2    0    0 +6.0969597811e+02 -3.1167622675e+01 +2.3778706567e+02 8.9689867350e+02 6.1252260000e+02 0.0000e+00 1.0000e+00
  1000022  1    1    2    0    0 -6.2941043043e+02 +4.2376428284e+01 +7.1390701777e+02 1.1326077949e+03 6.1252260000e+02 0.0000e+00 -1.0000e+00
       21  1    1    2  502  501 +1.9714452325e+01 -1.1208805610e+01 +3.6477866651e+01 4.2952668242e+01 0.0000000000e+00 0.0000e+00 1.0000e+00
<mgrwt>
<rscale>  1 0.87027283E+03</rscale>
<asrwt>0</asrwt>
<pdfrwt beam="1">  1        2 0.23543316E+00 0.87027283E+03</pdfrwt>
<pdfrwt beam="2">  1       -2 0.83406707E-01 0.87027283E+03</pdfrwt>
<totfact> 0.15508833E+01</totfact>
</mgrwt>
</event>
<event>
 5      1 +1.8937969e-08 7.33215300e+02 7.81665300e-03 9.66205700e-02
       21 -1    0    0  501  502 +0.0000000000e+00 +0.0000000000e+00 +2.4491735157e+02 2.4491735157e+02 0.0000000000e+00 0.0000e+00 -1.0000e+00
       -3 -1    0    0    0  501 -0.0000000000e+00 -0.0000000000e+00 -3.2931425117e+03 3.2931425131e+03 9.5000000000e-02 0.0000e+00 -1.0000e+00
  1000022  1    1    2    0    0 -1.3462098554e+02 +3.7443111605e+02 -5.3387913038e+02 9.0472776667e+02 6.1252260000e+02 0.0000e+00 1.0000e+00
  1000022  1    1    2    0    0 +1.6073338672e+02 -3.7135970702e+02 -2.4948056750e+03 2.6005735031e+03 6.1252260000e+02 0.0000e+00 1.0000e+00
       -3  1    1    2    0  502 -2.6112401189e+01 -3.0714090364e+00 -1.9540354828e+01 3.2758594920e+01 9.5000000000e-02 0.0000e+00 1.0000e+00
<mgrwt>
<rscale>  1 0.73321529E+03</rscale>
<asrwt>0</asrwt>
<pdfrwt beam="1">  1       21 0.37679593E-01 0.73321529E+03</pdfrwt>
<pdfrwt beam="2">  1       -3 0.50663730E+00 0.73321529E+03</pdfrwt>
<totfact> 0.94842512E-01</totfact>
</mgrwt>
</event>
<event>
 5      1 +1.8937969e-08 7.50790300e+02 7.81665300e-03 9.63411100e-02
       -3 -1    0    0    0  501 -0.0000000000e+00 +0.0000000000e+00 +7.7374161100e+02 7.7374161683e+02 9.5000000000e-02 0.0000e+00 -1.0000e+00
        3 -1    0    0  502    0 +0.0000000000e+00 -0.0000000000e+00 -1.1488844202e+03 1.1488844242e+03 9.5000000000e-02 0.0000e+00 -1.0000e+00
  1000022  1    1    2    0    0 -4.0666387377e+02 -1.3412152956e+02 +3.2216640036e+02 8.1384225496e+02 6.1252260000e+02 0.0000e+00 1.0000e+00
  1000022  1    1    2    0    0 +4.0461932902e+02 +2.1181669415e+02 -5.4732322745e+02 9.3985624654e+02 6.1252260000e+02 0.0000e+00 1.0000e+00
       21  1    1    2  502  501 +2.0445447491e+00 -7.7695164583e+01 -1.4998598215e+02 1.6892753951e+02 0.0000000000e+00 0.0000e+00 -1.0000e+00
<mgrwt>
<rscale>  1 0.75079030E+03</rscale>
<asrwt>0</asrwt>
<pdfrwt beam="2">  1        3 0.17675145E+00 0.75079030E+03</pdfrwt>
<pdfrwt beam="1">  1       -3 0.11903717E+00 0.75079030E+03</pdfrwt>
<totfact> 0.31188717E-01</totfact>
</mgrwt>
</event>
<event>
 5      1 +1.8937969e-08 8.72135400e+02 7.81665300e-03 9.46110000e-02
        1 -1    0    0  502    0 +0.0000000000e+00 +0.0000000000e+00 +2.4562011779e+03 2.4562011779e+03 5.0000000000e-03 0.0000e+00 -1.0000e+00
       -1 -1    0    0    0  501 -0.0000000000e+00 -0.0000000000e+00 -3.8193756104e+02 3.8193756107e+02 5.0000000000e-03 0.0000e+00 1.0000e+00
  1000022  1    1    2    0    0 -2.5742731226e+02 +5.4747325418e+02 +1.5372543589e+03 1.7619110888e+03 6.1252260000e+02 0.0000e+00 -1.0000e+00
  1000022  1    1    2    0    0 +2.5524811929e+02 -5.7355045976e+02 +4.5085619382e+02 9.8618810341e+02 6.1252260000e+02 0.0000e+00 1.0000e+00
       21  1    1    2  502  501 +2.1791929674e+00 +2.6077205586e+01 +8.6153064062e+01 9.0039546758e+01 0.0000000000e+00 0.0000e+00 1.0000e+00
<mgrwt>
<rscale>  1 0.87213537E+03</rscale>
<asrwt>0</asrwt>
<pdfrwt beam="1">  1        1 0.37787710E+00 0.87213537E+03</pdfrwt>
<pdfrwt beam="2">  1       -1 0.58759626E-01 0.87213537E+03</pdfrwt>
<totfact> 0.44221899E+00</totfact>
</mgrwt>
</event>
<event>
 5      1 +1.8937969e-08 7.74480300e+02 7.81665300e-03 9.59770900e-02
        3 -1    0    0  502    0 +0.0000000000e+00 +0.0000000000e+00 +1.7262569906e+03 1.7262569932e+03 9.5000000000e-02 0.0000e+00 -1.0000e+00
       -3 -1    0    0    0  501 -0.0000000000e+00 -0.0000000000e+00 -6.4466143981e+02 6.4466144681e+02 9.5000000000e-02 0.0000e+00 -1.0000e+00
  1000022  1    1    2    0    0 -1.1509644701e+02 +4.9206368983e+02 +9.6889371731e+02 1.2527221711e+03 6.1252260000e+02 0.0000e+00 1.0000e+00
  1000022  1    1    2    0    0 -2.1224810558e+02 -4.2475174020e+02 +3.9138324467e+01 7.7600196074e+02 6.1252260000e+02 0.0000e+00 1.0000e+00
       21  1    1    2  502  501 +3.2734455259e+02 -6.7311949640e+01 +7.3563508962e+01 3.4219430815e+02 0.0000000000e+00 0.0000e+00 -1.0000e+00
<mgrwt>
<rscale>  1 0.77448028E+03</rscale>
<asrwt>0</asrwt>
<pdfrwt beam="1">  1        3 0.26557800E+00 0.77448028E+03</pdfrwt>
<pdfrwt beam="2">  1       -3 0.99178684E-01 0.77448028E+03</pdfrwt>
<totfact> 0.14013886E-01</totfact>
</mgrwt>
</event>
<event>
 5      1 +1.8937969e-08 8.94964300e+02 7.81665300e-03 9.43189800e-02
        2 -1    0    0  502    0 +0.0000000000e+00 +0.0000000000e+00 +1.3934968641e+03 1.3934968641e+03 2.5000000000e-03 0.0000e+00 -1.0000e+00
       -2 -1    0    0    0  501 -0.0000000000e+00 -0.0000000000e+00 -7.2821172875e+02 7.2821172875e+02 2.5000000000e-03 0.0000e+00 1.0000e+00
  1000022  1    1    2    0    0 -6.0999081855e+02 -1.2764235754e+02 -7.3444121207e+01 8.7690326981e+02 6.1252260000e+02 0.0000e+00 1.0000e+00
  1000022  1    1    2    0    0 +6.5864022774e+02 +9.7626255181e+01 +7.6221778405e+02 1.1830036860e+03 6.1252260000e+02 0.0000e+00 -1.0000e+00
       21  1    1    2  502  501 -4.8649409195e+01 +3.0016102360e+01 -2.3488527493e+01 6.1801637031e+01 0.0000000000e+00 0.0000e+00 1.0000e+00
<mgrwt>
<rscale>  1 0.89496433E+03</rscale>
<asrwt>0</asrwt>
<pdfrwt beam="1">  1        2 0.21438413E+00 0.89496433E+03</pdfrwt>
<pdfrwt beam="2">  1       -2 0.11203257E+00 0.89496433E+03</pdfrwt>
<totfact> 0.92180509E+00</totfact>
</mgrwt>
</event>
<event>
 5      1 +1.8937969e-08 7.68506000e+02 7.81665300e-03 9.60675700e-02
       21 -1    0    0  501  502 +0.0000000000e+00 +0.0000000000e+00 +1.2616149965e+03 1.2616149965e+03 0.0000000000e+00 0.0000e+00 1.0000e+00
        3 -1    0    0  502    0 -0.0000000000e+00 -0.0000000000e+00 -7.7608375275e+02 7.7608375856e+02 9.5000000000e-02 0.0000e+00 1.0000e+00
  1000022  1    1    2    0    0 +1.0939915454e+02 -4.4653439215e+02 +5.8625967868e+02 9.6449234562e+02 6.1252260000e+02 0.0000e+00 -1.0000e+00
  1000022  1    1    2    0    0 -6.0123081621e+01 +4.6237425153e+02 -3.3044953106e+02 8.3772642402e+02 6.1252260000e+02 0.0000e+00 -1.0000e+00
        3  1    1    2  501    0 -4.9276072920e+01 -1.5839859377e+01 +2.2972109616e+02 2.3547998546e+02 9.5000000000e-02 0.0000e+00 -1.0000e+00
<mgrwt>
<rscale>  1 0.76850597E+03</rscale>
<asrwt>0</asrwt>
<pdfrwt beam="1">  1       21 0.19409462E+00 0.76850597E+03</pdfrwt>
<pdfrwt beam="2">  1        3 0.11939750E+00 0.76850597E+03</pdfrwt>
<totfact> 0.34250742E+00</totfact>
</mgrwt>
</event>
<event>
 5      1 +1.8937969e-08 7.85665300e+02 7.81665300e-03 9.58100100e-02
       -3 -1    0    0    0  501 -0.0000000000e+00 +0.0000000000e+00 +1.0656539102e+03 1.0656539145e+03 9.5000000000e-02 0.0000e+00 -1.0000e+00
       21 -1    0    0  501  502 +0.0000000000e+00 -0.0000000000e+00 -9.3161918424e+02 9.3161918424e+02 0.0000000000e+00 0.0000e+00 -1.0000e+00
  1000022  1    1    2    0    0 -3.5742189334e+02 +3.4840157779e+02 +5.6849533831e+02 9.7339866162e+02 6.1252260000e+02 0.0000e+00 1.0000e+00
  1000022  1    1    2    0    0 +3.4936277641e+02 -3.2069939214e+02 -2.1694980933e+02 8.0445857876e+02 6.1252260000e+02 0.0000e+00 1.0000e+00
       -3  1    1    2    0  502 +8.0591169337e+00 -2.7702185643e+01 -2.1751080298e+02 2.1941585835e+02 9.5000000000e-02 0.0000e+00 1.0000e+00
<mgrwt>
<rscale>  1 0.78566525E+03</rscale>
<asrwt>0</asrwt>
<pdfrwt beam="2">  1       21 0.14332603E+00 0.78566525E+03</pdfrwt>
<pdfrwt beam="1">  1       -3 0.16394676E+00 0.78566525E+03</pdfrwt>
<totfact> 0.36375467E+00</totfact>
</mgrwt>
</event>
<event>
 5      1 +1.8937969e-08 9.15361100e+02 7.81665300e-03 9.40658000e-02
       -1 -1    0    0    0  501 -0.0000000000e+00 +0.0000000000e+00 +4.2128082267e+02 4.2128082270e+02 5.0000000000e-03 0.0000e+00 1.0000e+00
        1 -1    0    0  502    0 +0.0000000000e+00 -0.0000000000e+00 -4.1573160048e+03 4.1573160048e+03 5.0000000000e-03 0.0000e+00 -1.0000e+00
  1000022  1    1    2    0    0 +3.7600923865e+02 +5.5020114367e+02 -1.8961784296e+03 2.1011379818e+03 6.1252260000e+02 0.0000e+00 -1.0000e+00
  1000022  1    1    2    0    0 -4.4511630815e+02 -5.3399328946e+02 -2.0532229250e+03 2.2525953201e+03 6.1252260000e+02 0.0000e+00 1.0000e+00
       21  1    1    2  502  501 +6.9107069497e+01 -1.6207854205e+01 +2.1336617247e+02 2.2486352561e+02 0.0000000000e+00 0.0000e+00 1.0000e+00
<mgrwt>
<rscale>  1 0.91536114E+03</rscale>
<asrwt>0</asrwt>
<pdfrwt beam="2">  1        1 0.63958705E+00 0.91536114E+03</pdfrwt>
<pdfrwt beam="1">  1       -1 0.64812437E-01 0.91536114E+03</pdfrwt>
<totfact> 0.18040817E-01</totfact>
</mgrwt>
</event>
<event>
 5      1 +1.8937969e-08 8.56028600e+02 7.81665300e-03 9.48228100e-02
       -3 -1    0    0    0  501 -0.0000000000e+00 +0.0000000000e+00 +1.8573842423e+03 1.8573842448e+03 9.5000000000e-02 0.0000e+00 -1.0000e+00
        3 -1    0    0  502    0 +0.0000000000e+00 -0.0000000000e+00 -5.0640391831e+02 5.0640392722e+02 9.5000000000e-02 0.0000e+00 -1.0000e+00
  1000022  1    1    2    0    0 -6.6059180952e+02 -3.3182344186e+01 +5.0537006913e+02 1.0334725197e+03 6.1252260000e+02 0.0000e+00 1.0000e+00
  1000022  1    1    2    0    0 +5.5907286356e+02 -4.5882482686e+00 +8.8705019462e+02 1.2143415920e+03 6.1252260000e+02 0.0000e+00 1.0000e+00
       21  1    1    2  502  501 +1.0151894596e+02 +3.7770592454e+01 -4.1439939731e+01 1.1597406024e+02 0.0000000000e+00 0.0000e+00 1.0000e+00
<mgrwt>
<rscale>  1 0.85602857E+03</rscale>
<asrwt>0</asrwt>
<pdfrwt beam="2">  1        3 0.77908297E-01 0.85602857E+03</pdfrwt>
<pdfrwt beam="1">  1       -3 0.28575142E+00 0.85602857E+03</pdfrwt>
<totfact> 0.18404197E-01</totfact>
</mgrwt>
</event>
<event>
 5      1 +1.8937969e-08 7.28362400e+02 7.81665300e-03 9.66992100e-02
        3 -1    0    0  502    0 +0.0000000000e+00 +0.0000000000e+00 +6.8985029757e+02 6.8985030411e+02 9.5000000000e-02 0.0000e+00 1.0000e+00
       -3 -1    0    0    0  501 -0.0000000000e+00 -0.0000000000e+00 -1.1922080018e+03 1.1922080056e+03 9.5000000000e-02 0.0000e+00 1.0000e+00
  1000022  1    1    2    0    0 +3.3279929480e+02 -2.0189124888e+02 +2.8081279479e+02 7.7817427882e+02 6.1252260000e+02 0.0000e+00 -1.0000e+00
  1000022  1    1    2    0    0 -3.6795813919e+02 +1.8617253229e+02 -7.3099039551e+02 1.0390304605e+03 6.1252260000e+02 0.0000e+00 -1.0000e+00
       21  1    1    2  502  501 +3.5158844393e+01 +1.5718716590e+01 -5.2180103510e+01 6.4853570392e+01 0.0000000000e+00 0.0000e+00 -1.0000e+00
<mgrwt>
<rscale>  1 0.72836240E+03</rscale>
<asrwt>0</asrwt>
<pdfrwt beam="1">  1        3 0.10613082E+00 0.72836240E+03</pdfrwt>
<pdfrwt beam="2">  1       -3 0.18341662E+00 0.72836240E+03</pdfrwt>
<totfact> 0.37048020E-01</totfact>
</mgrwt>
</event>
<event>
 5      1 +1.8937969e-08 7.51365800e+02 7.81665300e-03 9.63321000e-02
        3 -1    0    0  502    0 -0.0000000000e+00 +0.0000000000e+00 +5.6908100264e+02 5.6908101057e+02 9.5000000000e-02 0.0000e+00 1.0000e+00
       21 -1    0    0  501  502 +0.0000000000e+00 -0.0000000000e+00 -1.7378760897e+03 1.7378760897e+03 0.0000000000e+00 0.0000e+00 1.0000e+00
  1000022  1    1    2    0    0 -2.1281513114e+02 +3.5014328146e+02 +4.0411657657e+01 7.3804311201e+02 6.1252260000e+02 0.0000e+00 -1.0000e+00
  1000022  1    1    2    0    0 +3.3624908237e+02 -4.1402101936e+02 -1.1704191533e+03 1.4246198720e+03 6.1252260000e+02 0.0000e+00 -1.0000e+00
        3  1    1    2  501    0 -1.2343395122e+02 +6.3877737900e+01 -3.8787591451e+01 1.4429411627e+02 9.5000000000e-02 0.0000e+00 -1.0000e+00
<mgrwt>
<rscale>  1 0.75136584E+03</rscale>
<asrwt>0</asrwt>
<pdfrwt beam="2">  1       21 0.26736555E+00 0.75136584E+03</pdfrwt>
<pdfrwt beam="1">  1        3 0.87550924E-01 0.75136584E+03</pdfrwt>
<totfact> 0.23993380E+00</totfact>
</mgrwt>
</event>
<event>
 5      1 +1.8937969e-08 8.20367400e+02 7.81665300e-03 9.53099500e-02
        3 -1    0    0  502    0 -0.0000000000e+00 +0.0000000000e+00 +3.5240781508e+02 3.5240782788e+02 9.5000000000e-02 0.0000e+00 -1.0000e+00
       21 -1    0    0  501  502 +0.0000000000e+00 -0.0000000000e+00 -2.4350879932e+03 2.4350879932e+03 0.0000000000e+00 0.0000e+00 -1.0000e+00
  1000022  1    1    2    0    0 -1.1925845253e+02 +5.6729135864e+02 -6.0318254297e+02 1.0368486774e+03 6.1252260000e+02 0.0000e+00 1.0000e+00
  1000022  1    1    2    0    0 +8.6724113145e+01 -4.7377370787e+02 -1.4520260840e+03 1.6478914655e+03 6.1252260000e+02 0.0000e+00 1.0000e+00
        3  1    1    2  501    0 +3.2534339381e+01 -9.3517650774e+01 -2.7471551108e+01 1.0275567814e+02 9.5000000000e-02 0.0000e+00 1.0000e+00
<mgrwt>
<rscale>  1 0.82036743E+03</rscale>
<asrwt>0</asrwt>
<pdfrwt beam="2">  1       21 0.37462893E+00 0.82036743E+03</pdfrwt>
<pdfrwt beam="1">  1        3 0.54216587E-01 0.82036743E+03</pdfrwt>
<totfact> 0.14419976E+00</totfact>
</mgrwt>
</event>
<event>
 5      1 +1.8937969e-08 8.79115300e+02 7.81665300e-03 9.45207200e-02
       -3 -1    0    0    0  501 -0.0000000000e+00 +0.0000000000e+00 +1.1992044063e+03 1.1992044101e+03 9.5000000000e-02 0.0000e+00 1.0000e+00
        3 -1    0    0  502    0 +0.0000000000e+00 -0.0000000000e+00 -8.5081016779e+02 8.5081017309e+02 9.5000000000e-02 0.0000e+00 1.0000e+00
  1000022  1    1    2    0    0 -4.7678659611e+02 +4.7846006966e+02 -3.5540339462e+01 9.1252208068e+02 6.1252260000e+02 0.0000e+00 -1.0000e+00
  1000022  1    1    2    0    0 +4.0639975612e+02 -4.1544305750e+02 +1.1463566801e+02 8.5210267438e+02 6.1252260000e+02 0.0000e+00 -1.0000e+00
       21  1    1    2  502  501 +7.0386839990e+01 -6.3017012159e+01 +2.6929890996e+02 2.8538982808e+02 0.0000000000e+00 0.0000e+00 1.0000e+00
<mgrwt>
<rscale>  1 0.87911534E+03</rscale>
<asrwt>0</asrwt>
<pdfrwt beam="2">  1        3 0.13089387E+00 0.87911534E+03</pdfrwt>
<pdfrwt beam="1">  1       -3 0.18449299E+00 0.87911534E+03</pdfrwt>
<totfact> 0.21623414E-01</totfact>
</mgrwt>
</event>
<event>
 5      1 +1.8937969e-08 6.69956800e+02 7.81665300e-03 9.77003600e-02
       -3 -1    0    0    0  501 -0.0000000000e+00 +0.0000000000e+00 +6.6126641856e+02 6.6126642539e+02 9.5000000000e-02 0.0000e+00 1.0000e+00
        3 -1    0    0  502    0 +0.0000000000e+00 -0.0000000000e+00 -1.6419045973e+03 1.6419046001e+03 9.5000000000e-02 0.0000e+00 1.0000e+00
  1000022  1    1    2    0    0 -2.4756020933e+02 +1.1670591590e+02 +3.3912160578e+02 7.5172716265e+02 6.1252260000e+02 0.0000e+00 -1.0000e+00
  1000022  1    1    2    0    0 +2.4658838737e+02 -8.7874987882e+01 -8.4581482538e+02 1.0766218002e+03 6.1252260000e+02 0.0000e+00 -1.0000e+00
       21  1    1    2  502  501 +9.7182196696e-01 -2.8830928023e+01 -4.7394495915e+02 4.7482206262e+02 0.0000000000e+00 0.0000e+00 -1.0000e+00
<mgrwt>
<rscale>  1 0.66995680E+03</rscale>
<asrwt>0</asrwt>
<pdfrwt beam="2">  1        3 0.25260071E+00 0.66995680E+03</pdfrwt>
<pdfrwt beam="1">  1       -3 0.10173330E+00 0.66995680E+03</pdfrwt>
<totfact> 0.15792634E-01</totfact>
</mgrwt>
</event>
<event>
 5      1 +1.8937969e-08 8.19701200e+02 7.81665300e-03 9.53193000e-02
       -3 -1    0    0    0  501 -0.0000000000e+00 +0.0000000000e+00 +6.3590876672e+02 6.3590877382e+02 9.5000000000e-02 0.0000e+00 -1.0000e+00
        3 -1    0    0  502    0 +0.0000000000e+00 -0.0000000000e+00 -1.2515007612e+03 1.2515007648e+03 9.5000000000e-02 0.0000e+00 -1.0000e+00
  1000022  1    1    2    0    0 +3.3762009277e+02 -4.2284940267e+02 -6.2533676834e+02 1.0290864656e+03 6.1252260000e+02 0.0000e+00 1.0000e+00
  1000022  1    1    2    0    0 -3.6873194468e+02 +4.1190749895e+02 +1.2682698948e+01 8.2521259144e+02 6.1252260000e+02 0.0000e+00 1.0000e+00
       21  1    1    2  502  501 +3.1111851906e+01 +1.0941903723e+01 -2.9379250999e+00 3.3110481574e+01 0.0000000000e+00 0.0000e+00 1.0000e+00
<mgrwt>
<rscale>  1 0.81970123E+03</rscale>
<asrwt>0</asrwt>
<pdfrwt beam="2">  1        3 0.19253858E+00 0.81970123E+03</pdfrwt>
<pdfrwt beam="1">  1       -3 0.97832119E-01 0.81970123E+03</pdfrwt>
<totfact> 0.39073300E-01</totfact>
</mgrwt>
</event>
<event>
 5      1 +1.8937969e-08 7.92966900e+02 7.81665300e-03 9.57025300e-02
       -1 -1    0    0    0  501 -0.0000000000e+00 +0.0000000000e+00 +2.2188034071e+03 2.2188034071e+03 5.0000000000e-03 0.0000e+00 1.0000e+00
        1 -1    0    0  502    0 +0.0000000000e+00 -0.0000000000e+00 -5.9256292771e+02 5.9256292773e+02 5.0000000000e-03 0.0000e+00 -1.0000e+00
  1000022  1    1    2    0    0 -1.1401989968e+02 -4.9351227222e+02 -1.9632336055e+02 8.1870733340e+02 6.1252260000e+02 0.0000e+00 -1.0000e+00
  1000022  1    1    2    0    0 +1.0295158984e+02 +4.7549824664e+02 +1.7457467792e+03 1.9129854586e+03 6.1252260000e+02 0.0000e+00 1.0000e+00
       21  1    1    2  502  501 +1.1068309839e+01 +1.8014025584e+01 +7.6817060786e+01 7.9673542837e+01 0.0000000000e+00 0.0000e+00 1.0000e+00
<mgrwt>
<rscale>  1 0.79296688E+03</rscale>
<asrwt>0</asrwt>
<pdfrwt beam="2">  1        1 0.91163527E-01 0.79296688E+03</pdfrwt>
<pdfrwt beam="1">  1       -1 0.34135437E+00 0.79296688E+03</pdfrwt>
<totfact> 0.65237950E-01</totfact>
</mgrwt>
</event>
<event>
 5      1 +1.8937969e-08 6.17892800e+02 7.81665300e-03 9.86896400e-02
       21 -1    0    0  501  502 +0.0000000000e+00 +0.0000000000e+00 +1.4783555496e+03 1.4783555496e+03 0.0000000000e+00 0.0000e+00 1.0000e+00
       -3 -1    0    0    0  501 -0.0000000000e+00 -0.0000000000e+00 -5.2058261933e+02 5.2058262800e+02 9.5000000000e-02 0.0000e+00 1.0000e+00
  1000022  1    1    2    0    0 -2.9140060702e+01 -7.4275079866e+01 -2.0905070848e+02 6.5211353678e+02 6.1252260000e+02 0.0000e+00 1.0000e+00
  1000022  1    1    2    0    0 +4.9163969819e+01 +7.6807127405e+01 +1.1723831552e+03 1.3258893728e+03 6.1252260000e+02 0.0000e+00 1.0000e+00
       -3  1    1    2    0  502 -2.0023909117e+01 -2.5320475397e+00 -5.5595164165e+00 2.0935268063e+01 9.5000000000e-02 0.0000e+00 -1.0000e+00
<mgrwt>
<rscale>  1 0.61789284E+03</rscale>
<asrwt>0</asrwt>
<pdfrwt beam="1">  1       21 0.22743931E+00 0.61789284E+03</pdfrwt>
<pdfrwt beam="2">  1       -3 0.80089635E-01 0.61789284E+03</pdfrwt>
<totfact> 0.54130531E+00</totfact>
</mgrwt>
</event>
<event>
 5      1 +1.8937969e-08 8.72261400e+02 7.81665300e-03 9.46093600e-02
        3 -1    0    0  502    0 -0.0000000000e+00 +0.0000000000e+00 +1.2087759152e+03 1.2087759189e+03 9.5000000000e-02 0.0000e+00 1.0000e+00
       21 -1    0    0  501  502 +0.0000000000e+00 -0.0000000000e+00 -8.8298631908e+02 8.8298631908e+02 0.0000000000e+00 0.0000e+00 -1.0000e+00
  1000022  1    1    2    0    0 +3.4089189616e+02 +5.2324254273e+02 +3.8627712295e+02 9.5623427810e+02 6.1252260000e+02 0.0000e+00 -1.0000e+00
  1000022  1    1    2    0    0 -3.5336858429e+02 -5.0566106087e+02 +1.8524263505e+02 8.8885388799e+02 6.1252260000e+02 0.0000e+00 -1.0000e+00
        3  1    1    2  501    0 +1.2476688132e+01 -1.7581481865e+01 -2.4573016191e+02 2.4667407190e+02 9.5000000000e-02 0.0000e+00 -1.0000e+00
<mgrwt>
<rscale>  1 0.87226141E+03</rscale>
<asrwt>0</asrwt>
<pdfrwt beam="2">  1       21 0.13584405E+00 0.87226141E+03</pdfrwt>
<pdfrwt beam="1">  1        3 0.18596553E+00 0.87226141E+03</pdfrwt>
<totfact> 0.29435871E+00</totfact>
</mgrwt>
</event>
<event>
 5      1 +1.8937969e-08 6.25205300e+02 7.81665300e-03 9.85445000e-02
       -3 -1    0    0    0  501 -0.0000000000e+00 +0.0000000000e+00 +1.4577537267e+03 1.4577537298e+03 9.5000000000e-02 0.0000e+00 1.0000e+00
        3 -1    0    0  502    0 +0.0000000000e+00 -0.0000000000e+00 -7.4267673252e+02 7.4267673859e+02 9.5000000000e-02 0.0000e+00 1.0000e+00
  1000022  1    1    2    0    0 -9.2628706305e+01 -7.5114333153e+01 +1.1400510775e+03 1.2996625082e+03 6.1252260000e+02 0.0000e+00 -1.0000e+00
  1000022  1    1    2    0    0 +1.8994690081e+02 +8.9414288319e+00 -2.4673870920e+02 6.8718534647e+02 6.1252260000e+02 0.0000e+00 -1.0000e+00
       21  1    1    2  502  501 -9.7318194509e+01 +6.6172904321e+01 -1.7823537421e+02 2.1358261368e+02 0.0000000000e+00 0.0000e+00 1.0000e+00
<mgrwt>
<rscale>  1 0.62520535E+03</rscale>
<asrwt>0</asrwt>
<pdfrwt beam="2">  1        3 0.11425796E+00 0.62520535E+03</pdfrwt>
<pdfrwt beam="1">  1       -3 0.22426980E+00 0.62520535E+03</pdfrwt>
<totfact> 0.17433980E-01</totfact>
</mgrwt>
</event>
<event>
 5      1 +1.8937969e-08 8.76927800e+02 7.81665300e-03 9.45489100e-02
        3 -1    0    0  502    0 +0.0000000000e+00 +0.0000000000e+00 +1.0759233198e+03 1.0759233240e+03 9.5000000000e-02 0.0000e+00 -1.0000e+00
       -3 -1    0    0    0  501 -0.0000000000e+00 -0.0000000000e+00 -1.1736123703e+03 1.1736123742e+03 9.5000000000e-02 0.0000e+00 -1.0000e+00
  1000022  1    1    2    0    0 -1.5951667415e+02 +4.4891006841e+02 -3.8725219965e+01 7.7694877374e+02 6.1252260000e+02 0.0000e+00 1.0000e+00
  1000022  1    1    2    0    0 +1.6241327027e+02 -7.4997598660e+02 +2.7825823556e+02 1.0205163556e+03 6.1252260000e+02 0.0000e+00 1.0000e+00
       21  1    1    2  502  501 -2.8965961211e+00 +3.0106591820e+02 -3.3722206609e+02 4.5207056886e+02 0.0000000000e+00 0.0000e+00 -1.0000e+00
<mgrwt>
<rscale>  1 0.87692784E+03</rscale>
<asrwt>0</asrwt>
<pdfrwt beam="1">  1        3 0.16552667E+00 0.87692784E+03</pdfrwt>
<pdfrwt beam="2">  1       -3 0.18055575E+00 0.87692784E+03</pdfrwt>
<totfact> 0.12507229E-01</totfact>
</mgrwt>
</event>
<event>
 5      1 +1.8937969e-08 7.71076600e+02 7.81665300e-03 9.60285300e-02
        3 -1    0    0  502    0 +0.0000000000e+00 +0.0000000000e+00 +1.9545065148e+03 1.9545065171e+03 9.5000000000e-02 0.0000e+00 1.0000e+00
       -3 -1    0    0    0  501 -0.0000000000e+00 -0.0000000000e+00 -5.8174901555e+02 5.8174902331e+02 9.5000000000e-02 0.0000e+00 1.0000e+00
  1000022  1    1    2    0    0 +5.0094432925e+02 +1.5849078227e+02 -6.9619135642e+01 8.0999710409e+02 6.1252260000e+02 0.0000e+00 -1.0000e+00
  1000022  1    1    2    0    0 -2.7417736723e+02 -1.6981806835e+02 +8.7903346781e+02 1.1188812171e+03 6.1252260000e+02 0.0000e+00 -1.0000e+00
       21  1    1    2  502  501 -2.2676696203e+02 +1.1327286084e+01 +5.6334316704e+02 6.0737721914e+02 0.0000000000e+00 0.0000e+00 1.0000e+00
<mgrwt>
<rscale>  1 0.77107655E+03</rscale>
<asrwt>0</asrwt>
<pdfrwt beam="1">  1        3 0.30069331E+00 0.77107655E+03</pdfrwt>
<pdfrwt beam="2">  1       -3 0.89499849E-01 0.77107655E+03</pdfrwt>
<totfact> 0.11387434E-01</totfact>
</mgrwt>
</event>
<event>
 5      1 +1.8937969e-08 8.24957900e+02 7.81665300e-03 9.52457800e-02
       -1 -1    0    0    0  501 -0.0000000000e+00 +0.0000000000e+00 +2.5199096250e+03 2.5199096250e+03 5.0000000000e-03 0.0000e+00 1.0000e+00
        1 -1    0    0  502    0 +0.0000000000e+00 -0.0000000000e+00 -3.2189460361e+02 3.2189460365e+02 5.0000000000e-03 0.0000e+00 1.0000e+00
  1000022  1    1    2    0    0 -4.9568119397e+02 +2.7162301664e+02 +1.4883575754e+03 1.7058344342e+03 6.1252260000e+02 0.0000e+00 -1.0000e+00
  1000022  1    1    2    0    0 +4.6371996522e+02 -2.8932435437e+02 +5.9025646374e+02 1.0111040583e+03 6.1252260000e+02 0.0000e+00 -1.0000e+00
       21  1    1    2  502  501 +3.1961228751e+01 +1.7701337735e+01 +1.1940098228e+02 1.2486573617e+02 0.0000000000e+00 0.0000e+00 -1.0000e+00
<mgrwt>
<rscale>  1 0.82495787E+03</rscale>
<asrwt>0</asrwt>
<pdfrwt beam="2">  1        1 0.49522248E-01 0.82495787E+03</pdfrwt>
<pdfrwt beam="1">  1       -1 0.38767839E+00 0.82495787E+03</pdfrwt>
<totfact> 0.73085036E-01</totfact>
</mgrwt>
</event>
<event>
 5      1 +1.8937969e-08 8.50184000e+02 7.81665300e-03 9.49009000e-02
       -3 -1    0    0    0  501 -0.0000000000e+00 +0.0000000000e+00 +1.6435280474e+03 1.6435280501e+03 9.5000000000e-02 0.0000e+00 1.0000e+00
        3 -1    0    0  502    0 +0.0000000000e+00 -0.0000000000e+00 -6.7982856085e+02 6.7982856749e+02 9.5000000000e-02 0.0000e+00 1.0000e+00
  1000022  1    1    2    0    0 +1.8420778654e+02 -5.4741918414e+02 +8.0820673997e+02 1.1670399915e+03 6.1252260000e+02 0.0000e+00 1.0000e+00
  1000022  1    1    2    0    0 -1.0097163216e+02 +6.0552540848e+02 +3.5138269802e+02 9.3568692777e+02 6.1252260000e+02 0.0000e+00 -1.0000e+00
       21  1    1    2  502  501 -8.3236154388e+01 -5.8106224345e+01 -1.9588995145e+02 2.2062969833e+02 0.0000000000e+00 0.0000e+00 1.0000e+00
<mgrwt>
<rscale>  1 0.85018398E+03</rscale>
<asrwt>0</asrwt>
<pdfrwt beam="2">  1        3 0.10458901E+00 0.85018398E+03</pdfrwt>
<pdfrwt beam="1">  1       -3 0.25285047E+00 0.85018398E+03</pdfrwt>
<totfact> 0.14343264E-01</totfact>
</mgrwt>
</event>
<event>
 5      1 +1.8937969e-08 8.52261300e+02 7.81665300e-03 9.48730700e-02
        3 -1    0    0  502    0 +0.0000000000e+00 +0.0000000000e+00 +2.8110820912e+03 2.8110820928e+03 9.5000000000e-02 0.0000e+00 -1.0000e+00
       -3 -1    0    0    0  501 -0.0000000000e+00 -0.0000000000e+00 -2.7660256255e+02 2.7660257886e+02 9.5000000000e-02 0.0000e+00 -1.0000e+00
  1000022  1    1    2    0    0 +5.1780979053e+02 +2.6650398797e+02 +9.6936877582e+02 1.2860836341e+03 6.1252260000e+02 0.0000e+00 1.0000e+00
  1000022  1    1    2    0    0 -5.4614486802e+02 -2.4876185754e+02 +1.5231657598e+03 1.7479629704e+03 6.1252260000e+02 0.0000e+00 1.0000e+00
       21  1    1    2  502  501 +2.8335077484e+01 -1.7742130430e+01 +4.1944992973e+01 5.3638067114e+01 0.0000000000e+00 0.0000e+00 1.0000e+00
<mgrwt>
<rscale>  1 0.85226131E+03</rscale>
<asrwt>0</asrwt>
<pdfrwt beam="1">  1        3 0.43247417E+00 0.85226131E+03</pdfrwt>
<pdfrwt beam="2">  1       -3 0.42554242E-01 0.85226131E+03</pdfrwt>
<totfact> 0.11049418E-01</totfact>
</mgrwt>
</event>
<event>
 5      1 +1.8937969e-08 8.70296200e+02 7.81665300e-03 9.46349400e-02
        1 -1    0    0  502    0 +0.0000000000e+00 +0.0000000000e+00 +9.0512311671e+02 9.0512311673e+02 5.0000000000e-03 0.0000e+00 1.0000e+00
       -1 -1    0    0    0  501 -0.0000000000e+00 -0.0000000000e+00 -1.1018789455e+03 1.1018789455e+03 5.0000000000e-03 0.0000e+00 1.0000e+00
  1000022  1    1    2    0    0 -4.3433646021e+02 -3.1566215866e+02 -1.9721535211e+02 8.3807433423e+02 6.1252260000e+02 0.0000e+00 -1.0000e+00
  1000022  1    1    2    0    0 +6.2625369275e+02 +3.8183819382e+02 -5.8912153275e+01 9.5741770991e+02 6.1252260000e+02 0.0000e+00 -1.0000e+00
       21  1    1    2  502  501 -1.9191723254e+02 -6.6176035166e+01 +5.9371676596e+01 2.1151001810e+02 0.0000000000e+00 0.0000e+00 -1.0000e+00
<mgrwt>
<rscale>  1 0.87029617E+03</rscale>
<asrwt>0</asrwt>
<pdfrwt beam="1">  1        1 0.13924971E+00 0.87029617E+03</pdfrwt>
<pdfrwt beam="2">  1       -1 0.16951984E+00 0.87029617E+03</pdfrwt>
<totfact> 0.45552334E+00</totfact>
</mgrwt>
</event>
<event>
 5      1 +1.8937969e-08 7.76073700e+02 7.81665300e-03 9.59531000e-02
        3 -1    0    0  502    0 +0.0000000000e+00 +0.0000000000e+00 +1.1058440395e+03 1.1058440436e+03 9.5000000000e-02 0.0000e+00 -1.0000e+00
       -3 -1    0    0    0  501 -0.0000000000e+00 -0.0000000000e+00 -7.5745153646e+02 7.5745154242e+02 9.5000000000e-02 0.0000e+00 -1.0000e+00
  1000022  1    1    2    0    0 -1.6137597519e+02 -4.3955794965e+02 +5.8243608157e+02 9.6626555413e+02 6.1252260000e+02 0.0000e+00 1.0000e+00
  1000022  1    1    2    0    0 +2.3511074837e+02 +4.4380602911e+02 -2.1364532740e+02 8.2040789666e+02 6.1252260000e+02 0.0000e+00 1.0000e+00
       21  1    1    2  502  501 -7.3734773183e+01 -4.2480794590e+00 -2.0398251123e+01 7.6622135211e+01 0.0000000000e+00 0.0000e+00 1.0000e+00
<mgrwt>
<rscale>  1 0.77607365E+03</rscale>
<asrwt>0</asrwt>
<pdfrwt beam="1">  1        3 0.17012985E+00 0.77607365E+03</pdfrwt>
<pdfrwt beam="2">  1       -3 0.11653101E+00 0.77607365E+03</pdfrwt>
<totfact> 0.36379701E-01</totfact>
</mgrwt>
</event>
<event>
 5      1 +1.8937969e-08 8.61169100e+02 7.81665300e-03 9.47546800e-02
       -2 -1    0    0    0  501 -0.0000000000e+00 +0.0000000000e+00 +2.8111049351e+02 2.8111049352e+02 2.5000000000e-03 0.0000e+00 1.0000e+00
        2 -1    0    0  502    0 +0.0000000000e+00 -0.0000000000e+00 -4.5083753891e+03 4.5083753891e+03 2.5000000000e-03 0.0000e+00 -1.0000e+00
  1000022  1    1    2    0    0 +6.5338155444e+01 +5.5341658813e+02 -1.6658962638e+03 1.8603583772e+03 6.1252260000e+02 0.0000e+00 1.0000e+00
  1000022  1    1    2    0    0 -1.5416014755e+01 -6.4201313489e+02 -2.6497350738e+03 2.7944048411e+03 6.1252260000e+02 0.0000e+00 -1.0000e+00
       21  1    1    2  502  501 -4.9922140690e+01 +8.8596546763e+01 +8.8366441950e+01 1.3472266436e+02 0.0000000000e+00 0.0000e+00 1.0000e+00
<mgrwt>
<rscale>  1 0.86116907E+03</rscale>
<asrwt>0</asrwt>
<pdfrwt beam="2">  1        2 0.69359616E+00 0.86116907E+03</pdfrwt>
<pdfrwt beam="1">  1       -2 0.43247771E-01 0.86116907E+03</pdfrwt>
<totfact> 0.67929086E-01</totfact>
</mgrwt>
</event>
<event>
 5      1 +1.8937969e-08 7.13953100e+02 7.81665300e-03 9.69366400e-02
        2 -1    0    0  502    0 +0.0000000000e+00 +0.0000000000e+00 +1.7842867549e+03 1.7842867549e+03 2.5000000000e-03 0.0000e+00 -1.0000e+00
       -2 -1    0    0    0  501 -0.0000000000e+00 -0.0000000000e+00 -4.2694541794e+02 4.2694541795e+02 2.5000000000e-03 0.0000e+00 1.0000e+00
  1000022  1    1    2    0    0 -1.9034763676e+02 -9.7213591257e+01 +3.0765047228e+02 7.1799404855e+02 6.1252260000e+02 0.0000e+00 -1.0000e+00
  1000022  1    1    2    0    0 +4.6430306777e+02 +1.3586653437e+02 +8.3536179386e+02 1.1432630126e+03 6.1252260000e+02 0.0000e+00 1.0000e+00
       21  1    1    2  502  501 -2.7395543101e+02 -3.8652943108e+01 +2.1432907084e+02 3.4997511168e+02 0.0000000000e+00 0.0000e+00 1.0000e+00
<mgrwt>
<rscale>  1 0.71395313E+03</rscale>
<asrwt>0</asrwt>
<pdfrwt beam="1">  1        2 0.27450565E+00 0.71395313E+03</pdfrwt>
<pdfrwt beam="2">  1       -2 0.65683912E-01 0.71395313E+03</pdfrwt>
<totfact> 0.19440522E+01</totfact>
</mgrwt>
</event>
<event>
 5      1 +1.8937969e-08 7.83740300e+02 7.81665300e-03 9.58385500e-02
       -3 -1    0    0    0  501 -0.0000000000e+00 +0.0000000000e+00 +6.5080314507e+02 6.5080315200e+02 9.5000000000e-02 0.0000e+00 1.0000e+00
        3 -1    0    0  502    0 +0.0000000000e+00 -0.0000000000e+00 -1.4144111518e+03 1.4144111550e+03 9.5000000000e-02 0.0000e+00 1.0000e+00
  1000022  1    1    2    0    0 +4.2760161762e+02 -2.3623726779e+02 -7.3763187201e+02 1.0760743024e+03 6.1252260000e+02 0.0000e+00 -1.0000e+00
  1000022  1    1    2    0    0 -3.8866162151e+02 +2.9934119206e+02 +1.4929009974e+02 7.9883319578e+02 6.1252260000e+02 0.0000e+00 -1.0000e+00
       21  1    1    2  502  501 -3.8939996104e+01 -6.3103924270e+01 -1.7526623451e+02 1.9030680890e+02 0.0000000000e+00 0.0000e+00 1.0000e+00
<mgrwt>
<rscale>  1 0.78374031E+03</rscale>
<asrwt>0</asrwt>
<pdfrwt beam="2">  1        3 0.21760172E+00 0.78374031E+03</pdfrwt>
<pdfrwt beam="1">  1       -3 0.10012356E+00 0.78374031E+03</pdfrwt>
<totfact> 0.25931130E-01</totfact>
</mgrwt>
</event>
<event>
 5      1 +1.8937969e-08 8.69961700e+02 7.81665300e-03 9.46393000e-02
       21 -1    0    0  501  502 +0.0000000000e+00 +0.0000000000e+00 +1.5690267082e+03 1.5690267082e+03 0.0000000000e+00 0.0000e+00 -1.0000e+00
        3 -1    0    0  502    0 -0.0000000000e+00 -0.0000000000e+00 -6.3125306591e+02 6.3125307305e+02 9.5000000000e-02 0.0000e+00 -1.0000e+00
  1000022  1    1    2    0    0 -3.0298568664e+02 +5.0406806799e+02 +3.9060537229e+02 9.3468788151e+02 6.1252260000e+02 0.0000e+00 1.0000e+00
  1000022  1    1    2    0    0 +3.4144673320e+02 -5.4429044260e+02 +1.9476421716e+02 9.0882066070e+02 6.1252260000e+02 0.0000e+00 1.0000e+00
        3  1    1    2  501    0 -3.8461046564e+01 +4.0222374614e+01 +3.5240405286e+02 3.5677123906e+02 9.5000000000e-02 0.0000e+00 1.0000e+00
<mgrwt>
<rscale>  1 0.86996167E+03</rscale>
<asrwt>0</asrwt>
<pdfrwt beam="1">  1       21 0.24138872E+00 0.86996167E+03</pdfrwt>
<pdfrwt beam="2">  1        3 0.97115858E-01 0.86996167E+03</pdfrwt>
<totfact> 0.26731086E+00</totfact>
</mgrwt>
</event>
<event>
 5      1 +1.8937969e-08 8.46657000e+02 7.81665300e-03 9.49483500e-02
       -3 -1    0    0    0  501 -0.0000000000e+00 +0.0000000000e+00 +7.8036365454e+02 7.8036366033e+02 9.5000000000e-02 0.0000e+00 1.0000e+00
        3 -1    0    0  502    0 +0.0000000000e+00 -0.0000000000e+00 -1.0144960651e+03 1.0144960696e+03 9.5000000000e-02 0.0000e+00 1.0000e+00
  1000022  1    1    2    0    0 -5.7525760080e+02 +3.3178604218e+01 -2.4759300053e+02 8.7664608394e+02 6.1252260000e+02 0.0000e+00 -1.0000e+00
  1000022  1    1    2    0    0 +5.9182944180e+02 -6.9476787530e+01 -3.5200026538e+01 8.5528480027e+02 6.1252260000e+02 0.0000e+00 -1.0000e+00
       21  1    1    2  502  501 -1.6571841001e+01 +3.6298183313e+01 +4.8660616474e+01 6.2928845704e+01 0.0000000000e+00 0.0000e+00 1.0000e+00
<mgrwt>
<rscale>  1 0.84665697E+03</rscale>
<asrwt>0</asrwt>
<pdfrwt beam="2">  1        3 0.15607632E+00 0.84665697E+03</pdfrwt>
<pdfrwt beam="1">  1       -3 0.12005595E+00 0.84665697E+03</pdfrwt>
<totfact> 0.42396056E-01</totfact>
</mgrwt>
</event>
<event>
 5      1 +1.8937969e-08 8.87957800e+02 7.81665300e-03 9.44076100e-02
       21 -1    0    0  501  502 +0.0000000000e+00 +0.0000000000e+00 +7.3630189779e+02 7.3630189779e+02 0.0000000000e+00 0.0000e+00 1.0000e+00
        1 -1    0    0  502    0 -0.0000000000e+00 -0.0000000000e+00 -1.6197405404e+03 1.6197405404e+03 5.0000000000e-03 0.0000e+00 -1.0000e+00
  1000022  1    1    2    0    0 +5.6187089394e+02 +2.1956011933e+02 -6.3523820027e+02 1.0689326705e+03 6.1252260000e+02 0.0000e+00 -1.0000e+00
  1000022  1    1    2    0    0 -5.5620181265e+02 -4.6097515891e+02 -3.6977926036e+02 1.0167493253e+03 6.1252260000e+02 0.0000e+00 1.0000e+00
        1  1    1    2  501    0 -5.6690812920e+00 +2.4141503958e+02 +1.2157881803e+02 2.7036044244e+02 5.0000000000e-03 0.0000e+00 -1.0000e+00
<mgrwt>
<rscale>  1 0.88795776E+03</rscale>
<asrwt>0</asrwt>
<pdfrwt beam="1">  1       21 0.11327722E+00 0.88795776E+03</pdfrwt>
<pdfrwt beam="2">  1        1 0.24919085E+00 0.88795776E+03</pdfrwt>
<totfact> 0.30516389E+01</totfact>
</mgrwt>
</event>
<event>
 5      1 +1.8937969e-08 7.70576600e+02 7.81665300e-03 9.60361100e-02
        2 -1    0    0  502    0 +0.0000000000e+00 +0.0000000000e+00 +2.5615917436e+03 2.5615917436e+03 2.5000000000e-03 0.0000e+00 -1.0000e+00
       -2 -1    0    0    0  501 -0.0000000000e+00 -0.0000000000e+00 -2.7413255091e+02 2.7413255092e+02 2.5000000000e-03 0.0000e+00 1.0000e+00
  1000022  1    1    2    0    0 -5.1250254348e+02 -1.0273676737e+01 +1.3475421065e+03 1.5664667471e+03 6.1252260000e+02 0.0000e+00 -1.0000e+00
  1000022  1    1    2    0    0 +4.1104631948e+02 -3.3134185848e+01 +8.5694699699e+02 1.1311936360e+03 6.1252260000e+02 0.0000e+00 1.0000e+00
       21  1    1    2  502  501 +1.0145622400e+02 +4.3407862585e+01 +8.2970089194e+01 1.3806391137e+02 0.0000000000e+00 0.0000e+00 1.0000e+00
<mgrwt>
<rscale>  1 0.77057660E+03</rscale>
<asrwt>0</asrwt>
<pdfrwt beam="1">  1        2 0.39409105E+00 0.77057660E+03</pdfrwt>
<pdfrwt beam="2">  1       -2 0.42174238E-01 0.77057660E+03</pdfrwt>
<totfact> 0.17840537E+01</totfact>
</mgrwt>
</event>
<event>
 5      1 +1.8937969e-08 7.73758700e+02 7.81665300e-03 9.59879700e-02
       -2 -1    0    0    0  501 -0.0000000000e+00 +0.0000000000e+00 +4.3662755518e+02 4.3662755519e+02 2.5000000000e-03 0.0000e+00 -1.0000e+00
        2 -1    0    0  502    0 +0.0000000000e+00 -0.0000000000e+00 -1.9743812552e+03 1.9743812552e+03 2.5000000000e-03 0.0000e+00 1.0000e+00
  1000022  1    1    2    0    0 +4.0857714627e+02 +2.2212811061e+02 -1.3495880185e+03 1.5533344576e+03 6.1252260000e+02 0.0000e+00 1.0000e+00
  1000022  1    1    2    0    0 -4.3675935118e+02 -2.3418759982e+02 -2.1524532455e+02 8.1677233548e+02 6.1252260000e+02 0.0000e+00 -1.0000e+00
       21  1    1    2  502  501 +2.8182204908e+01 +1.2059489217e+01 +2.7079643039e+01 4.0902017319e+01 0.0000000000e+00 0.0000e+00 -1.0000e+00
<mgrwt>
<rscale>  1 0.77375871E+03</rscale>
<asrwt>0</asrwt>
<pdfrwt beam="2">  1        2 0.30375096E+00 0.77375871E+03</pdfrwt>
<pdfrwt beam="1">  1       -2 0.67173471E-01 0.77375871E+03</pdfrwt>
<totfact> 0.14471013E+01</totfact>
</mgrwt>
</event>
<event>
 5      1 +1.8937969e-08 6.72595900e+02 7.81665300e-03 9.76528000e-02
        1 -1    0    0  502    0 +0.0000000000e+00 +0.0000000000e+00 +1.5002149444e+03 1.5002149444e+03 5.0000000000e-03 0.0000e+00 -1.0000e+00
       -1 -1    0    0    0  501 -0.0000000000e+00 -0.0000000000e+00 -3.8061797004e+02 3.8061797008e+02 5.0000000000e-03 0.0000e+00 1.0000e+00
  1000022  1    1    2    0    0 +2.5330698053e+02 +8.0080700680e+01 +1.8534191425e+02 6.9290180090e+02 6.1252260000e+02 0.0000e+00 1.0000e+00
  1000022  1    1    2    0    0 -2.8503199506e+02 -1.0736537893e+02 +8.2986948974e+02 1.0754709984e+03 6.1252260000e+02 0.0000e+00 -1.0000e+00
       21  1    1    2  502  501 +3.1725014528e+01 +2.7284678255e+01 +1.0438557035e+02 1.1246011520e+02 0.0000000000e+00 0.0000e+00 1.0000e+00
<mgrwt>
<rscale>  1 0.67259593E+03</rscale>
<asrwt>0</asrwt>
<pdfrwt beam="1">  1        1 0.23080230E+00 0.67259593E+03</pdfrwt>
<pdfrwt beam="2">  1       -1 0.58556611E-01 0.67259593E+03</pdfrwt>
<totfact> 0.20212786E+01</totfact>
</mgrwt>
</event>
<event>
 5      1 +1.8937969e-08 8.42642000e+02 7.81665300e-03 9.50026600e-02
        2 -1    0    0  502    0 +0.0000000000e+00 +0.0000000000e+00 +9.4087665319e+02 9.4087665319e+02 2.5000000000e-03 0.0000e+00 1.0000e+00
       -2 -1    0    0    0  501 -0.0000000000e+00 -0.0000000000e+00 -8.5170121994e+02 8.5170121995e+02 2.5000000000e-03 0.0000e+00 -1.0000e+00
  1000022  1    1    2    0    0 -4.2058072710e+02 -3.8637919739e+02 +8.5970593077e+01 8.4187404674e+02 6.1252260000e+02 0.0000e+00 1.0000e+00
  1000022  1    1    2    0    0 +4.4751102094e+02 +3.7905669799e+02 +9.6344321185e+01 8.5347305633e+02 6.1252260000e+02 0.0000e+00 -1.0000e+00
       21  1    1    2  502  501 -2.6930293840e+01 +7.3224993987e+00 -9.3139481016e+01 9.7230770067e+01 0.0000000000e+00 0.0000e+00 -1.0000e+00
<mgrwt>
<rscale>  1 0.84264203E+03</rscale>
<asrwt>0</asrwt>
<pdfrwt beam="1">  1        2 0.14475025E+00 0.84264203E+03</pdfrwt>
<pdfrwt beam="2">  1       -2 0.13103096E+00 0.84264203E+03</pdfrwt>
<totfact> 0.11796300E+01</totfact>
</mgrwt>
</event>
<event>
 5      1 +1.8937969e-08 8.51458100e+02 7.81665300e-03 9.48838200e-02
        3 -1    0    0  502    0 +0.0000000000e+00 +0.0000000000e+00 +1.1774496912e+03 1.1774496951e+03 9.5000000000e-02 0.0000e+00 1.0000e+00
       -3 -1    0    0    0  501 -0.0000000000e+00 -0.0000000000e+00 -6.7838590683e+02 6.7838591349e+02 9.5000000000e-02 0.0000e+00 1.0000e+00
  1000022  1    1    2    0    0 -6.0422467597e+02 -5.1601978020e+01 +2.8377314798e+01 8.6240328774e+02 6.1252260000e+02 0.0000e+00 -1.0000e+00
  1000022  1    1    2    0    0 +5.6661934020e+02 +3.9667818514e+01 +4.4739451066e+02 9.4761637607e+02 6.1252260000e+02 0.0000e+00 -1.0000e+00
       21  1    1    2  502  501 +3.7605335772e+01 +1.1934159507e+01 +2.3291958941e+01 4.5815944746e+01 0.0000000000e+00 0.0000e+00 1.0000e+00
<mgrwt>
<rscale>  1 0.85145807E+03</rscale>
<asrwt>0</asrwt>
<pdfrwt beam="1">  1        3 0.18114611E+00 0.85145807E+03</pdfrwt>
<pdfrwt beam="2">  1       -3 0.10436706E+00 0.85145807E+03</pdfrwt>
<totfact> 0.39724460E-01</totfact>
</mgrwt>
</event>
<event>
 5      1 +1.8937969e-08 8.19613100e+02 7.81665300e-03 9.53205400e-02
        3 -1    0    0  502    0 +0.0000000000e+00 +0.0000000000e+00 +8.2902664751e+02 8.2902665296e+02 9.5000000000e-02 0.0000e+00 1.0000e+00
       -3 -1    0    0    0  501 -0.0000000000e+00 -0.0000000000e+00 -1.2809331555e+03 1.2809331591e+03 9.5000000000e-02 0.0000e+00 1.0000e+00
  1000022  1    1    2    0    0 +5.4658139184e+02 -2.6325577947e+01 -6.8328982167e+02 1.0684161969e+03 6.1252260000e+02 0.0000e+00 -1.0000e+00
  1000022  1    1    2    0    0 -5.3927593169e+02 +4.0884058830e+00 +7.1898906532e+00 8.1613165335e+02 6.1252260000e+02 0.0000e+00 -1.0000e+00
       21  1    1    2  502  501 -7.3054601526e+00 +2.2237172064e+01 +2.2419342300e+02 2.2541196172e+02 0.0000000000e+00 0.0000e+00 -1.0000e+00
<mgrwt>
<rscale>  1 0.81961307E+03</rscale>
<asrwt>0</asrwt>
<pdfrwt beam="1">  1        3 0.12754256E+00 0.81961307E+03</pdfrwt>
<pdfrwt beam="2">  1       -3 0.19706664E+00 0.81961307E+03</pdfrwt>
<totfact> 0.19206648E-01</totfact>
</mgrwt>
</event>
<event>
 5      1 +1.8937969e-08 7.52520100e+02 7.81665300e-03 9.63140500e-02
        3 -1    0    0  502    0 +0.0000000000e+00 +0.0000000000e+00 +1.0419978352e+03 1.0419978395e+03 9.5000000000e-02 0.0000e+00 -1.0000e+00
       -3 -1    0    0    0  501 -0.0000000000e+00 -0.0000000000e+00 -7.5183698814e+02 7.5183699414e+02 9.5000000000e-02 0.0000e+00 -1.0000e+00
  1000022  1    1    2    0    0 -5.8964653282e+01 -4.2833259561e+02 -3.0448977903e+02 8.0922407517e+02 6.1252260000e+02 0.0000e+00 1.0000e+00
  1000022  1    1    2    0    0 +4.8130461224e+01 +4.4926857648e+02 +5.7848886060e+02 9.5602933661e+02 6.1252260000e+02 0.0000e+00 1.0000e+00
       21  1    1    2  502  501 +1.0834192058e+01 -2.0935980870e+01 +1.6161765449e+01 2.8581421850e+01 0.0000000000e+00 0.0000e+00 1.0000e+00
<mgrwt>
<rscale>  1 0.75252010E+03</rscale>
<asrwt>0</asrwt>
<pdfrwt beam="1">  1        3 0.16030736E+00 0.75252010E+03</pdfrwt>
<pdfrwt beam="2">  1       -3 0.11566723E+00 0.75252010E+03</pdfrwt>
<totfact> 0.43502114E-01</totfact>
</mgrwt>
</event>
<event>
 5      1 +1.8937969e-08 6.84112800e+02 7.81665300e-03 9.74479400e-02
       -1 -1    0    0    0  501 -0.0000000000e+00 +0.0000000000e+00 +3.0080566540e+02 3.0080566544e+02 5.0000000000e-03 0.0000e+00 1.0000e+00
        1 -1    0    0  502    0 +0.0000000000e+00 -0.0000000000e+00 -2.6733616840e+03 2.6733616840e+03 5.0000000000e-03 0.0000e+00 -1.0000e+00
  1000022  1    1    2    0    0 +1.7933242845e+02 -2.0017864600e+02 -1.5946892766e+03 1.7292915991e+03 6.1252260000e+02 0.0000e+00 -1.0000e+00
  1000022  1    1    2    0    0 -2.4818747156e+02 +2.8053509262e+02 -8.5311534027e+02 1.1150276582e+03 6.1252260000e+02 0.0000e+00 1.0000e+00
       21  1    1    2  502  501 +6.8855043104e+01 -8.0356446621e+01 +7.5248598327e+01 1.2984809211e+02 0.0000000000e+00 0.0000e+00 1.0000e+00
<mgrwt>
<rscale>  1 0.68411279E+03</rscale>
<asrwt>0</asrwt>
<pdfrwt beam="2">  1        1 0.41128640E+00 0.68411279E+03</pdfrwt>
<pdfrwt beam="1">  1       -1 0.46277797E-01 0.68411279E+03</pdfrwt>
<totfact> 0.51202163E+00</totfact>
</mgrwt>
</event>
<event>
 5      1 +1.8937969e-08 6.91003100e+02 7.81665300e-03 9.73274300e-02
       -3 -1    0    0    0  501 -0.0000000000e+00 +0.0000000000e+00 +1.3626335477e+03 1.3626335510e+03 9.5000000000e-02 0.0000e+00 1.0000e+00
        3 -1    0    0  502    0 +0.0000000000e+00 -0.0000000000e+00 -5.9464399006e+02 5.9464399765e+02 9.5000000000e-02 0.0000e+00 1.0000e+00
  1000022  1    1    2    0    0 -2.8670449143e+02 +1.8117763359e+02 +9.4521316544e+02 1.1762808610e+03 6.1252260000e+02 0.0000e+00 -1.0000e+00
  1000022  1    1    2    0    0 +2.6262974246e+02 -1.7451841785e+02 -2.2695573358e+02 7.2534398757e+02 6.1252260000e+02 0.0000e+00 -1.0000e+00
       21  1    1    2  502  501 +2.4074748969e+01 -6.6592157451e+00 +4.9732125817e+01 5.5652700119e+01 0.0000000000e+00 0.0000e+00 1.0000e+00
<mgrwt>
<rscale>  1 0.69100313E+03</rscale>
<asrwt>0</asrwt>
<pdfrwt beam="2">  1        3 0.91483693E-01 0.69100313E+03</pdfrwt>
<pdfrwt beam="1">  1       -3 0.20963593E+00 0.69100313E+03</pdfrwt>
<totfact> 0.35820348E-01</totfact>
</mgrwt>
</event>
<event>
 5      1 +1.8937969e-08 7.01152600e+02 7.81665300e-03 9.71526300e-02
        2 -1    0    0  502    0 +0.0000000000e+00 +0.0000000000e+00 +1.0983714884e+03 1.0983714884e+03 2.5000000000e-03 0.0000e+00 -1.0000e+00
       -2 -1    0    0    0  501 -0.0000000000e+00 -0.0000000000e+00 -1.2374127407e+03 1.2374127407e+03 2.5000000000e-03 0.0000e+00 1.0000e+00
  1000022  1    1    2    0    0 -3.4451543134e+02 +1.1172097226e+02 +8.0854513785e+02 1.0770801426e+03 6.1252260000e+02 0.0000e+00 -1.0000e+00
  1000022  1    1    2    0    0 +3.1611526928e+02 -1.2187742570e+02 -9.8641467971e+02 1.2095374431e+03 6.1252260000e+02 0.0000e+00 1.0000e+00
       21  1    1    2  502  501 +2.8400162054e+01 +1.0156453441e+01 +3.8828289646e+01 4.9166643449e+01 0.0000000000e+00 0.0000e+00 -1.0000e+00
<mgrwt>
<rscale>  1 0.70115261E+03</rscale>
<asrwt>0</asrwt>
<pdfrwt beam="1">  1        2 0.16898023E+00 0.70115261E+03</pdfrwt>
<pdfrwt beam="2">  1       -2 0.19037119E+00 0.70115261E+03</pdfrwt>
<totfact> 0.34725965E+00</totfact>
</mgrwt>
</event>
<event>
 5      1 +1.8937969e-08 7.34632900e+02 7.81665300e-03 9.65977200e-02
        3 -1    0    0  502    0 +0.0000000000e+00 +0.0000000000e+00 +7.9563293571e+02 7.9563294138e+02 9.5000000000e-02 0.0000e+00 1.0000e+00
       -3 -1    0    0    0  501 -0.0000000000e+00 -0.0000000000e+00 -1.1447908978e+03 1.1447909017e+03 9.5000000000e-02 0.0000e+00 1.0000e+00
  1000022  1    1    2    0    0 +1.4376728614e+02 -3.4219233010e+02 +3.0100453839e+02 7.7688627931e+02 6.1252260000e+02 0.0000e+00 -1.0000e+00
  1000022  1    1    2    0    0 -1.7172286314e+02 +4.9269960796e+02 -5.9537177071e+02 1.0009461156e+03 6.1252260000e+02 0.0000e+00 -1.0000e+00
       21  1    1    2  502  501 +2.7955576999e+01 -1.5050727786e+02 -5.4790729778e+01 1.6259144825e+02 0.0000000000e+00 0.0000e+00 -1.0000e+00
<mgrwt>
<rscale>  1 0.73463294E+03</rscale>
<asrwt>0</asrwt>
<pdfrwt beam="1">  1        3 0.12240507E+00 0.73463294E+03</pdfrwt>
<pdfrwt beam="2">  1       -3 0.17612168E+00 0.73463294E+03</pdfrwt>
<totfact> 0.29373336E-01</totfact>
</mgrwt>
</event>
<event>
 5      1 +1.8937969e-08 8.37278300e+02 7.81665300e-03 9.50757200e-02
       -3 -1    0    0    0  501 -0.0000000000e+00 +0.0000000000e+00 +1.6710023230e+03 1.6710023257e+03 9.5000000000e-02 0.0000e+00 1.0000e+00
        3 -1    0    0  502    0 +0.0000000000e+00 -0.0000000000e+00 -6.1173597670e+02 6.1173598407e+02 9.5000000000e-02 0.0000e+00 1.0000e+00
  1000022  1    1    2    0    0 +3.7970619466e+02 -6.0656949885e+02 +2.3644308739e+02 9.7118104403e+02 6.1252260000e+02 0.0000e+00 -1.0000e+00
  1000022  1    1    2    0    0 -2.2812721742e+02 +4.4734254344e+02 +7.1351657547e+02 1.0660427841e+03 6.1252260000e+02 0.0000e+00 -1.0000e+00
       21  1    1    2  502  501 -1.5157897724e+02 +1.5922695540e+02 +1.0930668346e+02 2.4551448169e+02 0.0000000000e+00 0.0000e+00 1.0000e+00
<mgrwt>
<rscale>  1 0.83727830E+03</rscale>
<asrwt>0</asrwt>
<pdfrwt beam="2">  1        3 0.94113229E-01 0.83727830E+03</pdfrwt>
<pdfrwt beam="1">  1       -3 0.25707728E+00 0.83727830E+03</pdfrwt>
<totfact> 0.17403882E-01</totfact>
</mgrwt>
</event>
<event>
 5      1 +1.8937969e-08 9.10209900e+02 7.81665300e-03 9.41290800e-02
        2 -1    0    0  502    0 +0.0000000000e+00 +0.0000000000e+00 +3.9717405286e+03 3.9717405286e+03 2.5000000000e-03 0.0000e+00 -1.0000e+00
       -2 -1    0    0    0  501 -0.0000000000e+00 -0.0000000000e+00 -5.0447402529e+02 5.0447402530e+02 2.5000000000e-03 0.0000e+00 1.0000e+00
  1000022  1    1    2    0    0 +3.6152389728e+02 -5.7159352438e+02 +2.2499250145e+03 2.4279137530e+03 6.1252260000e+02 0.0000e+00 -1.0000e+00
  1000022  1    1    2    0    0 -3.3570727259e+02 +5.7895091635e+02 +1.5061313569e+03 1.7582659458e+03 6.1252260000e+02 0.0000e+00 1.0000e+00
       21  1    1    2  502  501 -2.5816624696e+01 -7.3573919677e+00 -2.8878986805e+02 2.9003485517e+02 0.0000000000e+00 0.0000e+00 1.0000e+00
<mgrwt>
<rscale>  1 0.91020992E+03</rscale>
<asrwt>0</asrwt>
<pdfrwt beam="1">  1        2 0.61103702E+00 0.91020992E+03</pdfrwt>
<pdfrwt beam="2">  1       -2 0.77611386E-01 0.91020992E+03</pdfrwt>
<totfact> 0.57141766E-01</totfact>
</mgrwt>
</event>
<event>
 5      1 +1.8937969e-08 6.89320100e+02 7.81665300e-03 9.73567300e-02
       -3 -1    0    0    0  501 -0.0000000000e+00 +0.0000000000e+00 +1.2725051618e+03 1.2725051654e+03 9.5000000000e-02 0.0000e+00 -1.0000e+00
       21 -1    0    0  501  502 +0.0000000000e+00 -0.0000000000e+00 -1.0001802968e+03 1.0001802968e+03 0.0000000000e+00 0.0000e+00 1.0000e+00
  1000022  1    1    2    0    0 -2.6849799082e+02 -1.8919077470e+02 +9.2873978320e+02 1.1600111382e+03 6.1252260000e+02 0.0000e+00 1.0000e+00
  1000022  1    1    2    0    0 +2.1292719165e+02 +1.5592604674e+02 -2.6782587749e+02 7.1872495237e+02 6.1252260000e+02 0.0000e+00 1.0000e+00
       -3  1    1    2    0  502 +5.5570799170e+01 +3.3264727965e+01 -3.8858904073e+02 3.9394937168e+02 9.5000000000e-02 0.0000e+00 1.0000e+00
<mgrwt>
<rscale>  1 0.68932010E+03</rscale>
<asrwt>0</asrwt>
<pdfrwt beam="2">  1       21 0.15387389E+00 0.68932010E+03</pdfrwt>
<pdfrwt beam="1">  1       -3 0.19577003E+00 0.68932010E+03</pdfrwt>
<totfact> 0.18709027E+00</totfact>
</mgrwt>
</event>
<event>
 5      1 +1.8937969e-08 8.22749200e+02 7.81665300e-03 9.52766000e-02
       21 -1    0    0  501  502 +0.0000000000e+00 +0.0000000000e+00 +1.3522325843e+03 1.3522325843e+03 0.0000000000e+00 0.0000e+00 -1.0000e+00
        3 -1    0    0  502    0 -0.0000000000e+00 -0.0000000000e+00 -6.8569426169e+02 6.8569426827e+02 9.5000000000e-02 0.0000e+00 -1.0000e+00
  1000022  1    1    2    0    0 -1.1554612878e+02 +5.0878115573e+02 +5.0899912803e+02 9.5208887198e+02 6.1252260000e+02 0.0000e+00 1.0000e+00
  1000022  1    1    2    0    0 +1.3425850287e+02 -5.4723361830e+02 -8.7718300650e+01 8.3688016727e+02 6.1252260000e+02 0.0000e+00 1.0000e+00
        3  1    1    2  501    0 -1.8712374091e+01 +3.8452462568e+01 +2.4525749519e+02 2.4895781328e+02 9.5000000000e-02 0.0000e+00 1.0000e+00
<mgrwt>
<rscale>  1 0.82274922E+03</rscale>
<asrwt>0</asrwt>
<pdfrwt beam="1">  1       21 0.20803578E+00 0.82274922E+03</pdfrwt>
<pdfrwt beam="2">  1        3 0.10549143E+00 0.82274922E+03</pdfrwt>
<totfact> 0.36656768E+00</totfact>
</mgrwt>
</event>
<event>
 5      1 +1.8937969e-08 8.10884600e+02 7.81665300e-03 9.54439400e-02
        2 -1    0    0  502    0 +0.0000000000e+00 +0.0000000000e+00 +5.9575829876e+02 5.9575829876e+02 2.5000000000e-03 0.0000e+00 -1.0000e+00
       -2 -1    0    0    0  501 -0.0000000000e+00 -0.0000000000e+00 -1.4134291201e+03 1.4134291201e+03 2.5000000000e-03 0.0000e+00 1.0000e+00
  1000022  1    1    2    0    0 -4.4496926886e+02 -3.1341187365e+02 -8.2580698202e+02 1.1633424946e+03 6.1252260000e+02 0.0000e+00 1.0000e+00
  1000022  1    1    2    0    0 +4.4297667795e+02 +2.8450352724e+02 +3.1982225975e+01 8.0831763096e+02 6.1252260000e+02 0.0000e+00 -1.0000e+00
       21  1    1    2  502  501 +1.9925909036e+00 +2.8908346408e+01 -2.3846065310e+01 3.7527293285e+01 0.0000000000e+00 0.0000e+00 1.0000e+00
<mgrwt>
<rscale>  1 0.81088464E+03</rscale>
<asrwt>0</asrwt>
<pdfrwt beam="1">  1        2 0.91655123E-01 0.81088464E+03</pdfrwt>
<pdfrwt beam="2">  1       -2 0.21745063E+00 0.81088464E+03</pdfrwt>
<totfact> 0.52119429E+00</totfact>
</mgrwt>
</event>
<event>
 5      1 +1.8937969e-08 9.21126000e+02 7.81665300e-03 9.39955200e-02
       -2 -1    0    0    0  501 -0.0000000000e+00 +0.0000000000e+00 +6.0881854226e+02 6.0881854226e+02 2.5000000000e-03 0.0000e+00 1.0000e+00
        2 -1    0    0  502    0 +0.0000000000e+00 -0.0000000000e+00 -1.7830158754e+03 1.7830158754e+03 2.5000000000e-03 0.0000e+00 -1.0000e+00
  1000022  1    1    2    0    0 -5.4386308933e+02 +3.6759442608e+02 -4.5941635199e+02 1.0085435251e+03 6.1252260000e+02 0.0000e+00 -1.0000e+00
  1000022  1    1    2    0    0 +6.0219439747e+02 -3.8880848508e+02 -3.3828666964e+02 1.0017144986e+03 6.1252260000e+02 0.0000e+00 1.0000e+00
       21  1    1    2  502  501 -5.8331308145e+01 +2.1214059005e+01 -3.7649431149e+02 3.8157639391e+02 0.0000000000e+00 0.0000e+00 1.0000e+00
<mgrwt>
<rscale>  1 0.92112596E+03</rscale>
<asrwt>0</asrwt>
<pdfrwt beam="2">  1        2 0.27431013E+00 0.92112596E+03</pdfrwt>
<pdfrwt beam="1">  1       -2 0.93664392E-01 0.92112596E+03</pdfrwt>
<totfact> 0.85583217E+00</totfact>
</mgrwt>
</event>
<event>
 5      1 +1.8937969e-08 9.06122600e+02 7.81665300e-03 9.41796000e-02
       -2 -1    0    0    0  501 -0.0000000000e+00 +0.0000000000e+00 +8.7076816715e+02 8.7076816716e+02 2.5000000000e-03 0.0000e+00 1.0000e+00
        2 -1    0    0  502    0 +0.0000000000e+00 -0.0000000000e+00 -1.0938264255e+03 1.0938264255e+03 2.5000000000e-03 0.0000e+00 -1.0000e+00
  1000022  1    1    2    0    0 -5.7760557995e+02 +2.3477357445e+02 -1.1941071223e+02 8.8215060560e+02 6.1252260000e+02 0.0000e+00 1.0000e+00
  1000022  1    1    2    0    0 +6.4714795980e+02 -2.9921156903e+02 -1.8444424107e+02 9.5787872849e+02 6.1252260000e+02 0.0000e+00 -1.0000e+00
       21  1    1    2  502  501 -6.9542379853e+01 +6.4437994580e+01 +8.0796694924e+01 1.2456525861e+02 0.0000000000e+00 0.0000e+00 -1.0000e+00
<mgrwt>
<rscale>  1 0.90612258E+03</rscale>
<asrwt>0</asrwt>
<pdfrwt beam="2">  1        2 0.16828099E+00 0.90612258E+03</pdfrwt>
<pdfrwt beam="1">  1       -2 0.13396433E+00 0.90612258E+03</pdfrwt>
<totfact> 0.88513457E+00</totfact>
</mgrwt>
</event>
<event>
 5      1 +1.8937969e-08 6.76334800e+02 7.81665300e-03 9.75858100e-02
        2 -1    0    0  502    0 +0.0000000000e+00 +0.0000000000e+00 +1.3852524881e+03 1.3852524881e+03 2.5000000000e-03 0.0000e+00 -1.0000e+00
       -2 -1    0    0    0  501 -0.0000000000e+00 -0.0000000000e+00 -7.1652335663e+02 7.1652335663e+02 2.5000000000e-03 0.0000e+00 1.0000e+00
  1000022  1    1    2    0    0 +1.7789628456e+02 -2.4464478974e+02 +2.9795265087e+02 7.4529046611e+02 6.1252260000e+02 0.0000e+00 1.0000e+00
  1000022  1    1    2    0    0 -1.6360715394e+02 +2.2424966994e+02 +7.3222538055e+02 9.9417964107e+02 6.1252260000e+02 0.0000e+00 -1.0000e+00
       21  1    1    2  502  501 -1.4289130616e+01 +2.0395119796e+01 -3.6144889996e+02 3.6230573753e+02 0.0000000000e+00 0.0000e+00 1.0000e+00
<mgrwt>
<rscale>  1 0.67633479E+03</rscale>
<asrwt>0</asrwt>
<pdfrwt beam="1">  1        2 0.21311577E+00 0.67633479E+03</pdfrwt>
<pdfrwt beam="2">  1       -2 0.11023436E+00 0.67633479E+03</pdfrwt>
<totfact> 0.99655074E+00</totfact>
</mgrwt>
</event>
<event>
 5      1 +1.8937969e-08 7.49976800e+02 7.81665300e-03 9.63538700e-02
        2 -1    0    0  502    0 +0.0000000000e+00 +0.0000000000e+00 +4.8578118669e+02 4.8578118670e+02 2.5000000000e-03 0.0000e+00 -1.0000e+00
       -2 -1    0    0    0  501 -0.0000000000e+00 -0.0000000000e+00 -1.4081338181e+03 1.4081338181e+03 2.5000000000e-03 0.0000e+00 1.0000e+00
  1000022  1    1    2    0    0 -7.4466814967e+01 +4.2849109998e+02 -7.0673435854e+02 1.0314103540e+03 6.1252260000e+02 0.0000e+00 1.0000e+00
  1000022  1    1    2    0    0 +3.2026893912e+01 -4.2934374176e+02 -2.6787960212e+02 7.9517619888e+02 6.1252260000e+02 0.0000e+00 -1.0000e+00
       21  1    1    2  502  501 +4.2439921055e+01 +8.5264177930e-01 +5.2261329274e+01 6.7328451895e+01 0.0000000000e+00 0.0000e+00 1.0000e+00
<mgrwt>
<rscale>  1 0.74997684E+03</rscale>
<asrwt>0</asrwt>
<pdfrwt beam="1">  1        2 0.74735568E-01 0.74997684E+03</pdfrwt>
<pdfrwt beam="2">  1       -2 0.21663597E+00 0.74997684E+03</pdfrwt>
<totfact> 0.67577354E+00</totfact>
</mgrwt>
</event>
<event>
 5      1 +1.8937969e-08 7.90824300e+02 7.81665300e-03 9.57339400e-02
        3 -1    0    0  502    0 +0.0000000000e+00 +0.0000000000e+00 +3.7610935537e+03 3.7610935549e+03 9.5000000000e-02 0.0000e+00 -1.0000e+00
       -3 -1    0    0    0  501 -0.0000000000e+00 -0.0000000000e+00 -2.1020160903e+02 2.1020163049e+02 9.5000000000e-02 0.0000e+00 -1.0000e+00
  1000022  1    1    2    0    0 +4.0374581636e+02 +2.8540912572e+02 +9.0493246828e+02 1.1993980828e+03 6.1252260000e+02 0.0000e+00 1.0000e+00
  1000022  1    1    2    0    0 -4.2339490418e+02 -2.9209306876e+02 +2.5099960862e+03 2.6343587254e+03 6.1252260000e+02 0.0000e+00 1.0000e+00
       21  1    1    2  502  501 +1.9649087816e+01 +6.6839430361e+00 +1.3596339015e+02 1.3753837722e+02 0.0000000000e+00 0.0000e+00 -1.0000e+00
<mgrwt>
<rscale>  1 0.79082426E+03</rscale>
<asrwt>0</asrwt>
<pdfrwt beam="1">  1        3 0.57862978E+00 0.79082426E+03</pdfrwt>
<pdfrwt beam="2">  1       -3 0.32338711E-01 0.79082426E+03</pdfrwt>
<totfact> 0.37021318E-02</totfact>
</mgrwt>
</event>
<event>
 5      1 +1.8937969e-08 6.99093500e+02 7.81665300e-03 9.71878400e-02
        2 -1    0    0  502    0 +0.0000000000e+00 +0.0000000000e+00 +1.6074227946e+03 1.6074227946e+03 2.5000000000e-03 0.0000e+00 -1.0000e+00
       -2 -1    0    0    0  501 -0.0000000000e+00 -0.0000000000e+00 -4.0597105096e+02 4.0597105097e+02 2.5000000000e-03 0.0000e+00 1.0000e+00
  1000022  1    1    2    0    0 +1.3019981842e+02 -2.9593937780e+02 +1.9648758820e+02 7.1994681462e+02 6.1252260000e+02 0.0000e+00 1.0000e+00
  1000022  1    1    2    0    0 -1.8563063847e+02 +2.8944528414e+02 +1.0173360138e+03 1.2362822521e+03 6.1252260000e+02 0.0000e+00 -1.0000e+00
       21  1    1    2  502  501 +5.5430820052e+01 +6.4940936534e+00 -1.2371858320e+01 5.7164778862e+01 0.0000000000e+00 0.0000e+00 1.0000e+00
<mgrwt>
<rscale>  1 0.69909348E+03</rscale>
<asrwt>0</asrwt>
<pdfrwt beam="1">  1        2 0.24729581E+00 0.69909348E+03</pdfrwt>
<pdfrwt beam="2">  1       -2 0.62457085E-01 0.69909348E+03</pdfrwt>
<totfact> 0.27105902E+01</totfact>
</mgrwt>
</event>
<event>
 5      1 +1.8937969e-08 8.35173200e+02 7.81665300e-03 9.51045600e-02
       21 -1    0    0  501  502 +0.0000000000e+00 +0.0000000000e+00 +1.9065681471e+03 1.9065681471e+03 0.0000000000e+00 0.0000e+00 1.0000e+00
       -3 -1    0    0    0  501 -0.0000000000e+00 -0.0000000000e+00 -6.6471428375e+02 6.6471429054e+02 9.5000000000e-02 0.0000e+00 1.0000e+00
  1000022  1    1    2    0    0 +6.9982319910e+01 -4.6162148086e+02 +7.1975518692e+02 1.0541458065e+03 6.1252260000e+02 0.0000e+00 -1.0000e+00
  1000022  1    1    2    0    0 +3.2177152700e+02 +5.7877479755e+02 +6.5824539628e+01 9.0445231350e+02 6.1252260000e+02 0.0000e+00 -1.0000e+00
       -3  1    1    2    0  502 -3.9175384691e+02 -1.1715331669e+02 +4.5627413679e+02 6.1268431766e+02 9.5000000000e-02 0.0000e+00 -1.0000e+00
<mgrwt>
<rscale>  1 0.83517317E+03</rscale>
<asrwt>0</asrwt>
<pdfrwt beam="1">  1       21 0.29331817E+00 0.83517317E+03</pdfrwt>
<pdfrwt beam="2">  1       -3 0.10226374E+00 0.83517317E+03</pdfrwt>
<totfact> 0.11287193E+00</totfact>
</mgrwt>
</event>
<event>
 5      1 +1.8937969e-08 7.08325000e+02 7.81665300e-03 9.70310000e-02
        1 -1    0    0  502    0 -0.0000000000e+00 +0.0000000000e+00 +1.2246074219e+03 1.2246074219e+03 5.0000000000e-03 0.0000e+00 1.0000e+00
       21 -1    0    0  501  502 +0.0000000000e+00 -0.0000000000e+00 -6.6655565817e+02 6.6655565817e+02 0.0000000000e+00 0.0000e+00 1.0000e+00
  1000022  1    1    2    0    0 +6.5595413118e+01 +3.6134138455e+02 -2.5638542697e+02 7.5880681144e+02 6.1252260000e+02 0.0000e+00 -1.0000e+00
  1000022  1    1    2    0    0 -1.8323643721e+01 -3.5288067215e+02 +8.2137317191e+02 1.0838350187e+03 6.1252260000e+02 0.0000e+00 -1.0000e+00
        1  1    1    2  501    0 -4.7271769397e+01 -8.4607124009e+00 -6.9359812117e+00 4.8521249950e+01 5.0000000000e-03 0.0000e+00 -1.0000e+00
<mgrwt>
<rscale>  1 0.70832499E+03</rscale>
<asrwt>0</asrwt>
<pdfrwt beam="2">  1       21 0.10254702E+00 0.70832499E+03</pdfrwt>
<pdfrwt beam="1">  1        1 0.18840114E+00 0.70832499E+03</pdfrwt>
<totfact> 0.76713225E+01</totfact>
</mgrwt>
</event>
<event>
 5      1 +1.8937969e-08 6.29240000e+02 7.81665300e-03 9.84653300e-02
        3 -1    0    0  502    0 -0.0000000000e+00 +0.0000000000e+00 +6.8284954903e+02 6.8284955564e+02 9.5000000000e-02 0.0000e+00 -1.0000e+00
       21 -1    0    0  501  502 +0.0000000000e+00 -0.0000000000e+00 -1.3986329522e+03 1.3986329522e+03 0.0000000000e+00 0.0000e+00 -1.0000e+00
  1000022  1    1    2    0    0 -1.9452419910e+02 +1.2240972003e+02 -8.7331530252e+02 1.0911862154e+03 6.1252260000e+02 0.0000e+00 1.0000e+00
  1000022  1    1    2    0    0 +1.3011599647e+02 -1.8774133429e+01 +3.8275444024e+02 7.3414408508e+02 6.1252260000e+02 0.0000e+00 1.0000e+00
        3  1    1    2  501    0 +6.4408202626e+01 -1.0363558660e+02 -2.2522254088e+02 2.5615220733e+02 9.5000000000e-02 0.0000e+00 1.0000e+00
<mgrwt>
<rscale>  1 0.62923996E+03</rscale>
<asrwt>0</asrwt>
<pdfrwt beam="2">  1       21 0.21517430E+00 0.62923996E+03</pdfrwt>
<pdfrwt beam="1">  1        3 0.10505378E+00 0.62923996E+03</pdfrwt>
<totfact> 0.34778524E+00</totfact>
</mgrwt>
</event>
<event>
 5      1 +1.8937969e-08 6.60619500e+02 7.81665300e-03 9.78705400e-02
        2 -1    0    0  502    0 +0.0000000000e+00 +0.0000000000e+00 +2.6028681060e+03 2.6028681060e+03 2.5000000000e-03 0.0000e+00 -1.0000e+00
       -2 -1    0    0    0  501 -0.0000000000e+00 -0.0000000000e+00 -1.9159372807e+02 1.9159372809e+02 2.5000000000e-03 0.0000e+00 1.0000e+00
  1000022  1    1    2    0    0 -2.2077175826e+02 +7.9933841186e+01 +1.2628970028e+03 1.4231030755e+03 6.1252260000e+02 0.0000e+00 -1.0000e+00
  1000022  1    1    2    0    0 +2.3762118031e+02 -9.7699263203e+01 +8.8341220759e+02 1.1052646902e+03 6.1252260000e+02 0.0000e+00 1.0000e+00
       21  1    1    2  502  501 -1.6849422048e+01 +1.7765422017e+01 +2.6496516748e+02 2.6609406837e+02 0.0000000000e+00 0.0000e+00 -1.0000e+00
<mgrwt>
<rscale>  1 0.66061949E+03</rscale>
<asrwt>0</asrwt>
<pdfrwt beam="1">  1        2 0.40044122E+00 0.66061949E+03</pdfrwt>
<pdfrwt beam="2">  1       -2 0.29475960E-01 0.66061949E+03</pdfrwt>
<totfact> 0.34038505E+01</totfact>
</mgrwt>
</event>
<event>
 5      1 +1.8937969e-08 9.55884500e+02 7.81665300e-03 9.35829900e-02
        1 -1    0    0  502    0 +0.0000000000e+00 +0.0000000000e+00 +1.3232154820e+03 1.3232154820e+03 5.0000000000e-03 0.0000e+00 -1.0000e+00
       -1 -1    0    0    0  501 -0.0000000000e+00 -0.0000000000e+00 -8.5131375608e+02 8.5131375609e+02 5.0000000000e-03 0.0000e+00 1.0000e+00
  1000022  1    1    2    0    0 -2.9972079057e+02 -6.0594979955e+02 +4.2546650260e+02 1.0065850149e+03 6.1252260000e+02 0.0000e+00 -1.0000e+00
  1000022  1    1    2    0    0 +3.5348733364e+02 +6.8359358539e+02 -1.0531439902e+02 9.8920601655e+02 6.1252260000e+02 0.0000e+00 1.0000e+00
       21  1    1    2  502  501 -5.3766543068e+01 -7.7643785842e+01 +1.5174962232e+02 1.7873820663e+02 0.0000000000e+00 0.0000e+00 -1.0000e+00
<mgrwt>
<rscale>  1 0.95588454E+03</rscale>
<asrwt>0</asrwt>
<pdfrwt beam="1">  1        1 0.20357161E+00 0.95588454E+03</pdfrwt>
<pdfrwt beam="2">  1       -1 0.13097135E+00 0.95588454E+03</pdfrwt>
<totfact> 0.43747665E+00</totfact>
</mgrwt>
</event>
<event>
 5      1 +1.8937969e-08 6.67152100e+02 7.81665300e-03 9.77511600e-02
       -3 -1    0    0    0  501 -0.0000000000e+00 +0.0000000000e+00 +3.8568694904e+02 3.8568696074e+02 9.5000000000e-02 0.0000e+00 1.0000e+00
        3 -1    0    0  502    0 +0.0000000000e+00 -0.0000000000e+00 -2.0869651990e+03 2.0869652012e+03 9.5000000000e-02 0.0000e+00 1.0000e+00
  1000022  1    1    2    0    0 +1.8261541009e+02 -1.9618596782e+02 -3.9605671715e+01 6.6976851726e+02 6.1252260000e+02 0.0000e+00 -1.0000e+00
  1000022  1    1    2    0    0 -1.9110003985e+02 +1.6036435314e+02 -1.5470078733e+03 1.6824545303e+03 6.1252260000e+02 0.0000e+00 -1.0000e+00
       21  1    1    2  502  501 +8.4846297646e+00 +3.5821614680e+01 -1.1466470494e+02 1.2042911434e+02 0.0000000000e+00 0.0000e+00 -1.0000e+00
<mgrwt>
<rscale>  1 0.66715213E+03</rscale>
<asrwt>0</asrwt>
<pdfrwt beam="2">  1        3 0.32107156E+00 0.66715213E+03</pdfrwt>
<pdfrwt beam="1">  1       -3 0.59336456E-01 0.66715213E+03</pdfrwt>
<totfact> 0.22108914E-01</totfact>
</mgrwt>
</event>
<event>
 5      1 +1.8937969e-08 7.71246000e+02 7.81665300e-03 9.60259600e-02
       -2 -1    0    0    0  501 -0.0000000000e+00 +0.0000000000e+00 +8.8483165141e+02 8.8483165142e+02 2.5000000000e-03 0.0000e+00 1.0000e+00
        2 -1    0    0  502    0 +0.0000000000e+00 -0.0000000000e+00 -7.9523844233e+02 7.9523844234e+02 2.5000000000e-03 0.0000e+00 -1.0000e+00
  1000022  1    1    2    0    0 -4.4880522132e+02 +8.8568428880e+01 +5.3513056059e+01 7.6636680249e+02 6.1252260000e+02 0.0000e+00 -1.0000e+00
  1000022  1    1    2    0    0 +4.7354067461e+02 -6.7915991548e+01 -9.1086223427e+01 7.8251772378e+02 6.1252260000e+02 0.0000e+00 1.0000e+00
       21  1    1    2  502  501 -2.4735453296e+01 -2.0652437332e+01 +1.2716637645e+02 1.3118556748e+02 0.0000000000e+00 0.0000e+00 -1.0000e+00
<mgrwt>
<rscale>  1 0.77124596E+03</rscale>
<asrwt>0</asrwt>
<pdfrwt beam="2">  1        2 0.12234438E+00 0.77124596E+03</pdfrwt>
<pdfrwt beam="1">  1       -2 0.13612795E+00 0.77124596E+03</pdfrwt>
<totfact> 0.13583921E+01</totfact>
</mgrwt>
</event>
<event>
 5      1 +1.8937969e-08 6.21660300e+02 7.81665300e-03 9.86146000e-02
       -2 -1    0    0    0  501 -0.0000000000e+00 +0.0000000000e+00 +2.5120946096e+02 2.5120946098e+02 2.5000000000e-03 0.0000e+00 1.0000e+00
        2 -1    0    0  502    0 +0.0000000000e+00 -0.0000000000e+00 -2.0106153852e+03 2.0106153852e+03 2.5000000000e-03 0.0000e+00 -1.0000e+00
  1000022  1    1    2    0    0 -2.5222896017e+01 -1.3241263241e+02 -4.4507497204e+02 7.6905459231e+02 6.1252260000e+02 0.0000e+00 1.0000e+00
  1000022  1    1    2    0    0 -1.7528461191e+01 +5.0801131204e+01 -1.1649666501e+03 1.3172772044e+03 6.1252260000e+02 0.0000e+00 -1.0000e+00
       21  1    1    2  502  501 +4.2751357208e+01 +8.1611501202e+01 -1.4936430214e+02 1.7549304950e+02 0.0000000000e+00 0.0000e+00 -1.0000e+00
<mgrwt>
<rscale>  1 0.62166035E+03</rscale>
<asrwt>0</asrwt>
<pdfrwt beam="2">  1        2 0.30932543E+00 0.62166035E+03</pdfrwt>
<pdfrwt beam="1">  1       -2 0.38647611E-01 0.62166035E+03</pdfrwt>
<totfact> 0.43735490E+01</totfact>
</mgrwt>
</event>
<event>
 5      1 +1.8937969e-08 1.30577400e+03 7.81665300e-03 9.10589200e-02
        2 -1    0    0  502    0 -0.0000000000e+00 +0.0000000000e+00 +2.8974624864e+03 2.8974624864e+03 2.5000000000e-03 0.0000e+00 1.0000e+00
       21 -1    0    0  501  502 +0.0000000000e+00 -0.0000000000e+00 -1.1499411315e+03 1.1499411315e+03 0.0000000000e+00 0.0000e+00 1.0000e+00
  1000022  1    1    2    0    0 -8.0711755536e+02 +1.8351900915e+02 +1.3468351120e+03 1.6953662523e+03 6.1252260000e+02 0.0000e+00 1.0000e+00
  1000022  1    1    2    0    0 -2.0291775711e+02 +7.0595822597e+02 +3.0022302865e+02 1.0024322598e+03 6.1252260000e+02 0.0000e+00 1.0000e+00
        2  1    1    2  501    0 +1.0100353125e+03 -8.8947723512e+02 +1.0046321420e+02 1.3496051058e+03 2.5000000000e-03 0.0000e+00 1.0000e+00
<mgrwt>
<rscale>  1 0.12079889E+04</rscale>
<asrwt>0</asrwt>
<pdfrwt beam="2">  1       21 0.17691402E+00 0.13057735E+04</pdfrwt>
<pdfrwt beam="1">  1        2 0.44576346E+00 0.13057735E+04</pdfrwt>
<totfact> 0.35385445E+00</totfact>
</mgrwt>
</event>
<event>
 5      1 +1.8937969e-08 6.64539000e+02 7.81665300e-03 9.77987400e-02
        4 -1    0    0  502    0 +0.0000000000e+00 +0.0000000000e+00 +1.1270684443e+03 1.1270691598e+03 1.2700000000e+00 0.0000e+00 1.0000e+00
       -4 -1    0    0    0  501 -0.0000000000e+00 -0.0000000000e+00 -7.5819318505e+02 7.5819424869e+02 1.2700000000e+00 0.0000e+00 -1.0000e+00
  1000022  1    1    2    0    0 +3.9492338043e+02 -2.0562408473e+02 +4.1381704212e+02 8.6294508544e+02 6.1252260000e+02 0.0000e+00 1.0000e+00
  1000022  1    1    2    0    0 -1.8913136963e+02 +4.9612778135e+01 -2.5272747861e+02 6.9085976630e+02 6.1252260000e+02 0.0000e+00 -1.0000e+00
       21  1    1    2  502  501 -2.0579201080e+02 +1.5601130660e+02 +2.0778569570e+02 3.3145855674e+02 0.0000000000e+00 0.0000e+00 1.0000e+00
<mgrwt>
<rscale>  1 0.66453896E+03</rscale>
<asrwt>0</asrwt>
<pdfrwt beam="1">  1        4 0.17339528E+00 0.66453896E+03</pdfrwt>
<pdfrwt beam="2">  1       -4 0.11664524E+00 0.66453896E+03</pdfrwt>
<totfact> 0.22263512E-01</totfact>
</mgrwt>
</event>
<event>
 5      1 +1.8937969e-08 8.78185500e+02 7.81665300e-03 9.45326900e-02
        3 -1    0    0  502    0 +0.0000000000e+00 +0.0000000000e+00 +1.6674412908e+03 1.6674412935e+03 9.5000000000e-02 0.0000e+00 1.0000e+00
       -3 -1    0    0    0  501 -0.0000000000e+00 -0.0000000000e+00 -5.0591680041e+02 5.0591680933e+02 9.5000000000e-02 0.0000e+00 1.0000e+00
  1000022  1    1    2    0    0 -5.0578067605e+02 +3.2151395646e+02 +5.2597157405e+02 1.0054925901e+03 6.1252260000e+02 0.0000e+00 -1.0000e+00
  1000022  1    1    2    0    0 +5.4721354938e+02 -3.6586593530e+02 +6.4481631724e+02 1.1064685128e+03 6.1252260000e+02 0.0000e+00 -1.0000e+00
       21  1    1    2  502  501 -4.1432873329e+01 +4.4351978844e+01 -9.2634008636e+00 6.1397000051e+01 0.0000000000e+00 0.0000e+00 -1.0000e+00
<mgrwt>
<rscale>  1 0.87818553E+03</rscale>
<asrwt>0</asrwt>
<pdfrwt beam="1">  1        3 0.25652944E+00 0.87818553E+03</pdfrwt>
<pdfrwt beam="2">  1       -3 0.77833353E-01 0.87818553E+03</pdfrwt>
<totfact> 0.27193724E-01</totfact>
</mgrwt>
</event>
<event>
 5      1 +1.8937969e-08 6.98001700e+02 7.81665300e-03 9.72065600e-02
        3 -1    0    0  502    0 +0.0000000000e+00 +0.0000000000e+00 +3.4312921771e+02 3.4312923086e+02 9.5000000000e-02 0.0000e+00 1.0000e+00
       -3 -1    0    0    0  501 -0.0000000000e+00 -0.0000000000e+00 -2.4336688635e+03 2.4336688654e+03 9.5000000000e-02 0.0000e+00 1.0000e+00
  1000022  1    1    2    0    0 +1.3255126128e+02 -3.0585653717e+02 -1.7307450007e+02 7.1851010868e+02 6.1252260000e+02 0.0000e+00 1.0000e+00
  1000022  1    1    2    0    0 -1.1708026228e+02 +3.1971869967e+02 -1.6853365866e+03 1.8252318156e+03 6.1252260000e+02 0.0000e+00 1.0000e+00
       21  1    1    2  502  501 -1.5470998993e+01 -1.3862162499e+01 -2.3212855908e+02 2.3305617199e+02 0.0000000000e+00 0.0000e+00 -1.0000e+00
<mgrwt>
<rscale>  1 0.69800175E+03</rscale>
<asrwt>0</asrwt>
<pdfrwt beam="1">  1        3 0.52789113E-01 0.69800175E+03</pdfrwt>
<pdfrwt beam="2">  1       -3 0.37441058E+00 0.69800175E+03</pdfrwt>
<totfact> 0.14076192E-01</totfact>
</mgrwt>
</event>
<event>
 5      1 +1.8937969e-08 8.12047400e+02 7.81665300e-03 9.54274100e-02
       -3 -1    0    0    0  501 -0.0000000000e+00 +0.0000000000e+00 +3.6340333459e+03 3.6340333472e+03 9.5000000000e-02 0.0000e+00 -1.0000e+00
        3 -1    0    0  502    0 +0.0000000000e+00 -0.0000000000e+00 -2.1991352829e+02 2.1991354881e+02 9.5000000000e-02 0.0000e+00 -1.0000e+00
  1000022  1    1    2    0    0 -1.7180613634e+01 -5.3031868644e+02 +2.3816836658e+03 2.5157770375e+03 6.1252260000e+02 0.0000e+00 1.0000e+00
  1000022  1    1    2    0    0 -1.6557990386e+01 +5.3914219489e+02 +9.9678685818e+02 1.2882998290e+03 6.1252260000e+02 0.0000e+00 1.0000e+00
       21  1    1    2  502  501 +3.3738604019e+01 -8.8235084518e+00 +3.5649293604e+01 4.9870029447e+01 0.0000000000e+00 0.0000e+00 1.0000e+00
<mgrwt>
<rscale>  1 0.81204743E+03</rscale>
<asrwt>0</asrwt>
<pdfrwt beam="2">  1        3 0.33832852E-01 0.81204743E+03</pdfrwt>
<pdfrwt beam="1">  1       -3 0.55908206E+00 0.81204743E+03</pdfrwt>
<totfact> 0.35161664E-02</totfact>
</mgrwt>
</event>
<event>
 5      1 +1.8937969e-08 1.14942000e+03 7.81665300e-03 9.15831800e-02
       21 -1    0    0  501  502 +0.0000000000e+00 +0.0000000000e+00 +9.1459671428e+02 9.1459671428e+02 0.0000000000e+00 0.0000e+00 1.0000e+00
        3 -1    0    0  502    0 -0.0000000000e+00 -0.0000000000e+00 -2.8085954668e+03 2.8085954684e+03 9.5000000000e-02 0.0000e+00 1.0000e+00
  1000022  1    1    2    0    0 -5.4831751629e+02 -9.0582076089e+02 -8.0667177770e+02 1.4652872217e+03 6.1252260000e+02 0.0000e+00 -1.0000e+00
  1000022  1    1    2    0    0 +5.7496887536e+02 +7.2660474484e+02 -1.4653262030e+03 1.8387246884e+03 6.1252260000e+02 0.0000e+00 -1.0000e+00
        3  1    1    2  501    0 -2.6651359069e+01 +1.7921601605e+02 +3.7799922825e+02 4.1918027259e+02 9.5000000000e-02 0.0000e+00 -1.0000e+00
<mgrwt>
<rscale>  1 0.11494203E+04</rscale>
<asrwt>0</asrwt>
<pdfrwt beam="1">  1       21 0.14070719E+00 0.11494203E+04</pdfrwt>
<pdfrwt beam="2">  1        3 0.43209161E+00 0.11494203E+04</pdfrwt>
<totfact> 0.10670221E-01</totfact>
</mgrwt>
</event>
<event>
 5      1 +1.8937969e-08 8.45481700e+02 7.81665300e-03 9.49642100e-02
       -3 -1    0    0    0  501 -0.0000000000e+00 +0.0000000000e+00 +5.9959968412e+02 5.9959969164e+02 9.5000000000e-02 0.0000e+00 -1.0000e+00
        3 -1    0    0  502    0 +0.0000000000e+00 -0.0000000000e+00 -1.3407198818e+03 1.3407198851e+03 9.5000000000e-02 0.0000e+00 -1.0000e+00
  1000022  1    1    2    0    0 +4.5470671196e+02 +4.1993671429e+02 -1.9331662796e+02 8.9199792156e+02 6.1252260000e+02 0.0000e+00 1.0000e+00
  1000022  1    1    2    0    0 -4.1279294514e+02 -3.7756989092e+02 -5.3578546296e+02 9.8752571405e+02 6.1252260000e+02 0.0000e+00 1.0000e+00
       21  1    1    2  502  501 -4.1913766824e+01 -4.2366823375e+01 -1.2018106731e+01 6.0795941161e+01 0.0000000000e+00 0.0000e+00 -1.0000e+00
<mgrwt>
<rscale>  1 0.84548166E+03</rscale>
<asrwt>0</asrwt>
<pdfrwt beam="2">  1        3 0.20626460E+00 0.84548166E+03</pdfrwt>
<pdfrwt beam="1">  1       -3 0.92246106E-01 0.84548166E+03</pdfrwt>
<totfact> 0.36646037E-01</totfact>
</mgrwt>
</event>
<event>
 5      1 +1.8937969e-08 8.78573200e+02 7.81665300e-03 9.45277000e-02
       -3 -1    0    0    0  501 -0.0000000000e+00 +0.0000000000e+00 +1.3326363650e+03 1.3326363684e+03 9.5000000000e-02 0.0000e+00 -1.0000e+00
        3 -1    0    0  502    0 +0.0000000000e+00 -0.0000000000e+00 -6.1427221949e+02 6.1427222684e+02 9.5000000000e-02 0.0000e+00 -1.0000e+00
  1000022  1    1    2    0    0 -5.0787812444e+01 +6.1004046651e+02 +3.5481880020e+02 9.3584672311e+02 6.1252260000e+02 0.0000e+00 1.0000e+00
  1000022  1    1    2    0    0 +3.1683692965e+01 -6.4728994768e+02 +3.7544810679e+02 9.6753984371e+02 6.1252260000e+02 0.0000e+00 1.0000e+00
       21  1    1    2  502  501 +1.9104119480e+01 +3.7249481170e+01 -1.1902761455e+01 4.3522028431e+01 0.0000000000e+00 0.0000e+00 -1.0000e+00
<mgrwt>
<rscale>  1 0.87857321E+03</rscale>
<asrwt>0</asrwt>
<pdfrwt beam="2">  1        3 0.94503420E-01 0.87857321E+03</pdfrwt>
<pdfrwt beam="1">  1       -3 0.20502098E+00 0.87857321E+03</pdfrwt>
<totfact> 0.35008220E-01</totfact>
</mgrwt>
</event>
<event>
 5      1 +1.8937969e-08 8.07038600e+02 7.81665300e-03 9.54988500e-02
       -3 -1    0    0    0  501 -0.0000000000e+00 +0.0000000000e+00 +4.7165865415e+02 4.7165866372e+02 9.5000000000e-02 0.0000e+00 -1.0000e+00
        3 -1    0    0  502    0 +0.0000000000e+00 -0.0000000000e+00 -1.9128623241e+03 1.9128623265e+03 9.5000000000e-02 0.0000e+00 -1.0000e+00
  1000022  1    1    2    0    0 +4.9882490752e+02 -1.9014799621e+02 -1.0033167967e+03 1.2910503782e+03 6.1252260000e+02 0.0000e+00 1.0000e+00
  1000022  1    1    2    0    0 -4.9689250141e+02 +1.6022803598e+02 -1.6832745410e+02 8.2224889710e+02 6.1252260000e+02 0.0000e+00 1.0000e+00
       21  1    1    2  502  501 -1.9324061095e+00 +2.9919960228e+01 -2.6955941914e+02 2.7122171495e+02 0.0000000000e+00 0.0000e+00 -1.0000e+00
<mgrwt>
<rscale>  1 0.80703856E+03</rscale>
<asrwt>0</asrwt>
<pdfrwt beam="2">  1        3 0.29428651E+00 0.80703856E+03</pdfrwt>
<pdfrwt beam="1">  1       -3 0.72562872E-01 0.80703856E+03</pdfrwt>
<totfact> 0.19709061E-01</totfact>
</mgrwt>
</event>
<event>
 5      1 +1.8937969e-08 7.68243000e+02 7.81665300e-03 9.60715700e-02
       -2 -1    0    0    0  501 -0.0000000000e+00 +0.0000000000e+00 +4.9510840880e+02 4.9510840881e+02 2.5000000000e-03 0.0000e+00 1.0000e+00
        2 -1    0    0  502    0 +0.0000000000e+00 -0.0000000000e+00 -1.6630534413e+03 1.6630534413e+03 2.5000000000e-03 0.0000e+00 -1.0000e+00
  1000022  1    1    2    0    0 +6.3589358173e+01 -4.6777042905e+02 -6.4110046483e+02 1.0045130772e+03 6.1252260000e+02 0.0000e+00 -1.0000e+00
  1000022  1    1    2    0    0 -8.7419418314e+01 +4.5079877657e+02 -1.5552007271e+02 7.8117355318e+02 6.1252260000e+02 0.0000e+00 1.0000e+00
       21  1    1    2  502  501 +2.3830060142e+01 +1.6971652473e+01 -3.7132449497e+02 3.7247521974e+02 0.0000000000e+00 0.0000e+00 -1.0000e+00
<mgrwt>
<rscale>  1 0.76824304E+03</rscale>
<asrwt>0</asrwt>
<pdfrwt beam="2">  1        2 0.25585437E+00 0.76824304E+03</pdfrwt>
<pdfrwt beam="1">  1       -2 0.76170525E-01 0.76824304E+03</pdfrwt>
<totfact> 0.16259277E+01</totfact>
</mgrwt>
</event>
<event>
 5      1 +1.8937969e-08 7.59726500e+02 7.81665300e-03 9.62021300e-02
       -3 -1    0    0    0  501 -0.0000000000e+00 +0.0000000000e+00 +1.4645351345e+03 1.4645351376e+03 9.5000000000e-02 0.0000e+00 -1.0000e+00
       21 -1    0    0  501  502 +0.0000000000e+00 -0.0000000000e+00 -1.3039935484e+03 1.3039935484e+03 0.0000000000e+00 0.0000e+00 1.0000e+00
  1000022  1    1    2    0    0 -3.5767437952e+02 +2.5286806628e+02 +9.4327433469e+02 1.2069894891e+03 6.1252260000e+02 0.0000e+00 1.0000e+00
  1000022  1    1    2    0    0 +4.3247946693e+02 -2.2392513836e+02 -7.9115562470e+00 7.8257746271e+02 6.1252260000e+02 0.0000e+00 1.0000e+00
       -3  1    1    2    0  502 -7.4805087402e+01 -2.8942927924e+01 -7.7482119235e+02 7.7896173418e+02 9.5000000000e-02 0.0000e+00 1.0000e+00
<mgrwt>
<rscale>  1 0.75972651E+03</rscale>
<asrwt>0</asrwt>
<pdfrwt beam="2">  1       21 0.20061439E+00 0.75972651E+03</pdfrwt>
<pdfrwt beam="1">  1       -3 0.22531310E+00 0.75972651E+03</pdfrwt>
<totfact> 0.55319671E-01</totfact>
</mgrwt>
</event>
<event>
 5      1 +1.8937969e-08 8.21925500e+02 7.81665300e-03 9.52881200e-02
       -2 -1    0    0    0  501 -0.0000000000e+00 +0.0000000000e+00 +3.3789713988e+02 3.3789713989e+02 2.5000000000e-03 0.0000e+00 1.0000e+00
        2 -1    0    0  502    0 +0.0000000000e+00 -0.0000000000e+00 -2.1903645266e+03 2.1903645266e+03 2.5000000000e-03 0.0000e+00 -1.0000e+00
  1000022  1    1    2    0    0 +2.0442756617e+02 -4.9636724130e+02 -8.0098847404e+02 1.1423386272e+03 6.1252260000e+02 0.0000e+00 -1.0000e+00
  1000022  1    1    2    0    0 -2.5371654989e+02 +5.0053682018e+02 -8.9185372654e+02 1.2188093375e+03 6.1252260000e+02 0.0000e+00 1.0000e+00
       21  1    1    2  502  501 +4.9288983720e+01 -4.1695788739e+00 -1.5962518614e+02 1.6711370187e+02 0.0000000000e+00 0.0000e+00 -1.0000e+00
<mgrwt>
<rscale>  1 0.82192553E+03</rscale>
<asrwt>0</asrwt>
<pdfrwt beam="2">  1        2 0.33697915E+00 0.82192553E+03</pdfrwt>
<pdfrwt beam="1">  1       -2 0.51984177E-01 0.82192553E+03</pdfrwt>
<totfact> 0.18784888E+01</totfact>
</mgrwt>
</event>
<event>
 5      1 +1.8937969e-08 1.51624100e+03 7.81665300e-03 8.87372400e-02
        2 -1    0    0  502    0 +0.0000000000e+00 +0.0000000000e+00 +2.3574823192e+03 2.3574823192e+03 2.5000000000e-03 0.0000e+00 -1.0000e+00
       -2 -1    0    0    0  501 -0.0000000000e+00 -0.0000000000e+00 -1.0106992681e+03 1.0106992682e+03 2.5000000000e-03 0.0000e+00 1.0000e+00
  1000022  1    1    2    0    0 +7.0423139729e+02 -1.1727477747e+03 +6.9072952175e+02 1.6503243353e+03 6.1252260000e+02 0.0000e+00 -1.0000e+00
  1000022  1    1    2    0    0 -7.1373420030e+02 +1.2125217222e+03 +6.7030708249e+02 1.6745509714e+03 6.1252260000e+02 0.0000e+00 1.0000e+00
       21  1    1    2  502  501 +9.5028030088e+00 -3.9773947486e+01 -1.4253553181e+01 4.3306280629e+01 0.0000000000e+00 0.0000e+00 -1.0000e+00
<mgrwt>
<rscale>  1 0.15162410E+04</rscale>
<asrwt>0</asrwt>
<pdfrwt beam="1">  1        2 0.36268959E+00 0.15162410E+04</pdfrwt>
<pdfrwt beam="2">  1       -2 0.15549219E+00 0.15162410E+04</pdfrwt>
<totfact> 0.10783128E+00</totfact>
</mgrwt>
</event>
<event>
 5      1 +1.8937969e-08 1.28554300e+03 7.81665300e-03 9.04110900e-02
       21 -1    0    0  501  502 +0.0000000000e+00 +0.0000000000e+00 +9.8288203862e+02 9.8288203862e+02 0.0000000000e+00 0.0000e+00 -1.0000e+00
        2 -1    0    0  502    0 -0.0000000000e+00 -0.0000000000e+00 -2.4886511329e+03 2.4886511330e+03 2.5000000000e-03 0.0000e+00 1.0000e+00
  1000022  1    1    2    0    0 -1.1246396098e+03 -1.1599350675e+01 -1.6243202022e+03 2.0684653373e+03 6.1252260000e+02 0.0000e+00 1.0000e+00
  1000022  1    1    2    0    0 +1.1469087736e+03 -2.0417837377e+01 +2.3798139438e+01 1.3006025181e+03 6.1252260000e+02 0.0000e+00 -1.0000e+00
        2  1    1    2  501    0 -2.2269163861e+01 +3.2017188051e+01 +9.4752968426e+01 1.0246531619e+02 2.5000000000e-03 0.0000e+00 1.0000e+00
<mgrwt>
<rscale>  1 0.12855432E+04</rscale>
<asrwt>0</asrwt>
<pdfrwt beam="1">  1       21 0.15121262E+00 0.12855432E+04</pdfrwt>
<pdfrwt beam="2">  1        2 0.38286940E+00 0.12855432E+04</pdfrwt>
<totfact> 0.97833003E+00</totfact>
</mgrwt>
</event>
<event>
 5      1 +1.8937969e-08 7.75305500e+02 7.81665300e-03 9.59646600e-02
       21 -1    0    0  501  502 +0.0000000000e+00 +0.0000000000e+00 +5.8767766232e+02 5.8767766232e+02 0.0000000000e+00 0.0000e+00 1.0000e+00
        3 -1    0    0  502    0 -0.0000000000e+00 -0.0000000000e+00 -1.9132205789e+03 1.9132205812e+03 9.5000000000e-02 0.0000e+00 1.0000e+00
  1000022  1    1    2    0    0 +5.0160029282e+02 +1.2424736729e+02 -1.3222320121e+03 1.5461312012e+03 6.1252260000e+02 0.0000e+00 -1.0000e+00
  1000022  1    1    2    0    0 -3.6677065301e+02 -5.4783025732e+01 -1.6318506821e+02 7.3439444021e+02 6.1252260000e+02 0.0000e+00 -1.0000e+00
        3  1    1    2  501    0 -1.3482963981e+02 -6.9464341563e+01 +1.5987416374e+02 2.2037260215e+02 9.5000000000e-02 0.0000e+00 -1.0000e+00
<mgrwt>
<rscale>  1 0.77530549E+03</rscale>
<asrwt>0</asrwt>
<pdfrwt beam="1">  1       21 0.90411949E-01 0.77530549E+03</pdfrwt>
<pdfrwt beam="2">  1        3 0.29434163E+00 0.77530549E+03</pdfrwt>
<totfact> 0.19490532E+00</totfact>
</mgrwt>
</event>
<event>
 5      1 +1.8937969e-08 9.11830100e+02 7.81665300e-03 9.41091300e-02
       -3 -1    0    0    0  501 -0.0000000000e+00 +0.0000000000e+00 +5.9657409586e+02 5.9657410343e+02 9.5000000000e-02 0.0000e+00 1.0000e+00
        3 -1    0    0  502    0 +0.0000000000e+00 -0.0000000000e+00 -1.4929686210e+03 1.4929686240e+03 9.5000000000e-02 0.0000e+00 1.0000e+00
  1000022  1    1    2    0    0 -1.9107275136e+02 +6.3136846021e+02 -5.8418240305e+02 1.0731206570e+03 6.1252260000e+02 0.0000e+00 -1.0000e+00
  1000022  1    1    2    0    0 +1.9640852871e+02 -6.6884258627e+02 -3.1050481507e+02 9.7853149722e+02 6.1252260000e+02 0.0000e+00 -1.0000e+00
       21  1    1    2  502  501 -5.3357773527e+00 +3.7474126055e+01 -1.7073069972e+00 3.7890573243e+01 0.0000000000e+00 0.0000e+00 1.0000e+00
<mgrwt>
<rscale>  1 0.91183007E+03</rscale>
<asrwt>0</asrwt>
<pdfrwt beam="2">  1        3 0.22968748E+00 0.91183007E+03</pdfrwt>
<pdfrwt beam="1">  1       -3 0.91780631E-01 0.91183007E+03</pdfrwt>
<totfact> 0.26649900E-01</totfact>
</mgrwt>
</event>
<event>
 5      1 +1.8937969e-08 6.53999700e+02 7.81665300e-03 9.79930300e-02
       -3 -1    0    0    0  501 -0.0000000000e+00 +0.0000000000e+00 +7.3453547364e+02 7.3453547978e+02 9.5000000000e-02 0.0000e+00 -1.0000e+00
        3 -1    0    0  502    0 +0.0000000000e+00 -0.0000000000e+00 -8.4290499027e+02 8.4290499562e+02 9.5000000000e-02 0.0000e+00 -1.0000e+00
  1000022  1    1    2    0    0 -1.9810974176e+02 -8.2137109752e+01 +3.2515871915e+02 7.2588298143e+02 6.1252260000e+02 0.0000e+00 1.0000e+00
  1000022  1    1    2    0    0 +2.3442218192e+02 +2.8691149838e+01 -4.3395371256e+02 7.8694135843e+02 6.1252260000e+02 0.0000e+00 1.0000e+00
       21  1    1    2  502  501 -3.6312440158e+01 +5.3445959914e+01 +4.2547677522e-01 6.4616135538e+01 0.0000000000e+00 0.0000e+00 1.0000e+00
<mgrwt>
<rscale>  1 0.65399968E+03</rscale>
<asrwt>0</asrwt>
<pdfrwt beam="2">  1        3 0.12967769E+00 0.65399968E+03</pdfrwt>
<pdfrwt beam="1">  1       -3 0.11300546E+00 0.65399968E+03</pdfrwt>
<totfact> 0.79659140E-01</totfact>
</mgrwt>
</event>
<event>
 5      1 +1.8937969e-08 8.71097300e+02 7.81665300e-03 9.46245000e-02
       -3 -1    0    0    0  501 -0.0000000000e+00 +0.0000000000e+00 +8.0760888065e+02 8.0760888624e+02 9.5000000000e-02 0.0000e+00 -1.0000e+00
        3 -1    0    0  502    0 +0.0000000000e+00 -0.0000000000e+00 -1.2228080301e+03 1.2228080338e+03 9.5000000000e-02 0.0000e+00 -1.0000e+00
  1000022  1    1    2    0    0 +5.1806307321e+02 -4.1606956780e+02 -2.2301702648e+01 9.0398259636e+02 6.1252260000e+02 0.0000e+00 1.0000e+00
  1000022  1    1    2    0    0 -3.3062021206e+02 +4.7528026667e+02 -2.3695519878e+02 8.7551856533e+02 6.1252260000e+02 0.0000e+00 1.0000e+00
       21  1    1    2  502  501 -1.8744286115e+02 -5.9210698870e+01 -1.5594224801e+02 2.5091575831e+02 0.0000000000e+00 0.0000e+00 -1.0000e+00
<mgrwt>
<rscale>  1 0.87109729E+03</rscale>
<asrwt>0</asrwt>
<pdfrwt beam="2">  1        3 0.18812431E+00 0.87109729E+03</pdfrwt>
<pdfrwt beam="1">  1       -3 0.12424752E+00 0.87109729E+03</pdfrwt>
<totfact> 0.23384675E-01</totfact>
</mgrwt>
</event>
<event>
 5      1 +1.8937969e-08 8.51397800e+02 7.81665300e-03 9.48846300e-02
        3 -1    0    0  502    0 +0.0000000000e+00 +0.0000000000e+00 +1.2211691620e+03 1.2211691657e+03 9.5000000000e-02 0.0000e+00 1.0000e+00
       -3 -1    0    0    0  501 -0.0000000000e+00 -0.0000000000e+00 -1.8924553420e+03 1.8924553444e+03 9.5000000000e-02 0.0000e+00 1.0000e+00
  1000022  1    1    2    0    0 -4.8100077088e+02 -3.9217556492e+02 -1.0164236375e+03 1.3392028830e+03 6.1252260000e+02 0.0000e+00 -1.0000e+00
  1000022  1    1    2    0    0 +4.5738552605e+02 +3.0508573389e+02 -4.7434774609e+02 9.4998344417e+02 6.1252260000e+02 0.0000e+00 -1.0000e+00
       21  1    1    2  502  501 +2.3615244827e+01 +8.7089831028e+01 +8.1948520361e+02 8.2443818288e+02 0.0000000000e+00 0.0000e+00 1.0000e+00
<mgrwt>
<rscale>  1 0.85139780E+03</rscale>
<asrwt>0</asrwt>
<pdfrwt beam="1">  1        3 0.18787218E+00 0.85139780E+03</pdfrwt>
<pdfrwt beam="2">  1       -3 0.29114698E+00 0.85139780E+03</pdfrwt>
<totfact> 0.19413531E-02</totfact>
</mgrwt>
</event>
<event>
 5      1 +1.8937969e-08 7.63577600e+02 7.81665300e-03 9.61428700e-02
       -3 -1    0    0    0  501 -0.0000000000e+00 +0.0000000000e+00 +2.4723233638e+03 2.4723233656e+03 9.5000000000e-02 0.0000e+00 1.0000e+00
        3 -1    0    0  502    0 +0.0000000000e+00 -0.0000000000e+00 -7.8209682135e+02 7.8209682712e+02 9.5000000000e-02 0.0000e+00 1.0000e+00
  1000022  1    1    2    0    0 +4.5098274192e+01 -4.5898127645e+02 -3.1988519341e+02 8.3078766176e+02 6.1252260000e+02 0.0000e+00 -1.0000e+00
  1000022  1    1    2    0    0 -1.1325980361e+02 +4.3108035509e+02 +4.9098771815e+02 9.0272417191e+02 6.1252260000e+02 0.0000e+00 -1.0000e+00
       21  1    1    2  502  501 +6.8161529419e+01 +2.7900921361e+01 +1.5191240177e+03 1.5209083591e+03 0.0000000000e+00 0.0000e+00 1.0000e+00
<mgrwt>
<rscale>  1 0.76357762E+03</rscale>
<asrwt>0</asrwt>
<pdfrwt beam="2">  1        3 0.12032259E+00 0.76357762E+03</pdfrwt>
<pdfrwt beam="1">  1       -3 0.38035744E+00 0.76357762E+03</pdfrwt>
<totfact> 0.20337876E-02</totfact>
</mgrwt>
</event>
<event>
 5      1 +1.8937969e-08 6.34150800e+02 7.81665300e-03 9.83698200e-02
        3 -1    0    0  502    0 +0.0000000000e+00 +0.0000000000e+00 +3.5034178330e+02 3.5034179618e+02 9.5000000000e-02 0.0000e+00 -1.0000e+00
       -3 -1    0    0    0  501 -0.0000000000e+00 -0.0000000000e+00 -2.2716613284e+03 2.2716613304e+03 9.5000000000e-02 0.0000e+00 -1.0000e+00
  1000022  1    1    2    0    0 -8.6893482372e+01 -1.1453008668e+02 -5.3976902309e+01 6.3147847115e+02 6.1252260000e+02 0.0000e+00 1.0000e+00
  1000022  1    1    2    0    0 +7.3786769149e+01 +1.5142168337e+02 -1.8270702568e+03 1.9343584653e+03 6.1252260000e+02 0.0000e+00 1.0000e+00
       21  1    1    2  502  501 +1.3106713223e+01 -3.6891596692e+01 -4.0272385989e+01 5.6166190108e+01 0.0000000000e+00 0.0000e+00 -1.0000e+00
<mgrwt>
<rscale>  1 0.63415077E+03</rscale>
<asrwt>0</asrwt>
<pdfrwt beam="1">  1        3 0.53898738E-01 0.63415077E+03</pdfrwt>
<pdfrwt beam="2">  1       -3 0.34948635E+00 0.63415077E+03</pdfrwt>
<totfact> 0.18600556E-01</totfact>
</mgrwt>
</event>
<event>
 5      1 +1.8937969e-08 8.12620000e+02 7.81665300e-03 9.54192800e-02
        1 -1    0    0  502    0 +0.0000000000e+00 +0.0000000000e+00 +7.2262471562e+02 7.2262471564e+02 5.0000000000e-03 0.0000e+00 -1.0000e+00
       -1 -1    0    0    0  501 -0.0000000000e+00 -0.0000000000e+00 -1.1455315773e+03 1.1455315773e+03 5.0000000000e-03 0.0000e+00 -1.0000e+00
  1000022  1    1    2    0    0 +2.6109444999e+02 +4.4313218232e+02 -5.4233622541e+02 9.6635860824e+02 6.1252260000e+02 0.0000e+00 1.0000e+00
  1000022  1    1    2    0    0 -2.4312231547e+02 -4.8564813882e+02 +1.6703103739e+02 8.3549139910e+02 6.1252260000e+02 0.0000e+00 1.0000e+00
       21  1    1    2  502  501 -1.7972134515e+01 +4.2515956497e+01 -4.7601673647e+01 6.6306285599e+01 0.0000000000e+00 0.0000e+00 1.0000e+00
<mgrwt>
<rscale>  1 0.81262005E+03</rscale>
<asrwt>0</asrwt>
<pdfrwt beam="1">  1        1 0.11117303E+00 0.81262005E+03</pdfrwt>
<pdfrwt beam="2">  1       -1 0.17623563E+00 0.81262005E+03</pdfrwt>
<totfact> 0.58958643E+00</totfact>
</mgrwt>
</event>
<event>
 5      1 +1.8937969e-08 7.51064200e+02 7.81665300e-03 9.63368200e-02
       -1 -1    0    0    0  501 -0.0000000000e+00 +0.0000000000e+00 +5.6547973749e+02 5.6547973751e+02 5.0000000000e-03 0.0000e+00 1.0000e+00
        1 -1    0    0  502    0 +0.0000000000e+00 -0.0000000000e+00 -1.5105912358e+03 1.5105912358e+03 5.0000000000e-03 0.0000e+00 -1.0000e+00
  1000022  1    1    2    0    0 -7.0512747289e+01 +4.4262159632e+02 -1.0199157021e+03 1.2713370521e+03 6.1252260000e+02 0.0000e+00 -1.0000e+00
  1000022  1    1    2    0    0 +3.6167491025e+01 -3.8837207641e+02 +1.0510039223e+02 7.3373768140e+02 6.1252260000e+02 0.0000e+00 1.0000e+00
       21  1    1    2  502  501 +3.4345256264e+01 -5.4249519913e+01 -3.0296188422e+01 7.0996239841e+01 0.0000000000e+00 0.0000e+00 1.0000e+00
<mgrwt>
<rscale>  1 0.75106423E+03</rscale>
<asrwt>0</asrwt>
<pdfrwt beam="2">  1        1 0.23239865E+00 0.75106423E+03</pdfrwt>
<pdfrwt beam="1">  1       -1 0.86996883E-01 0.75106423E+03</pdfrwt>
<totfact> 0.86989851E+00</totfact>
</mgrwt>
</event>
<event>
 5      1 +1.8937969e-08 9.20206300e+02 7.81665300e-03 9.40066900e-02
       -1 -1    0    0    0  501 -0.0000000000e+00 +0.0000000000e+00 +1.5693689856e+03 1.5693689856e+03 5.0000000000e-03 0.0000e+00 1.0000e+00
        1 -1    0    0  502    0 +0.0000000000e+00 -0.0000000000e+00 -9.3409469294e+02 9.3409469296e+02 5.0000000000e-03 0.0000e+00 -1.0000e+00
  1000022  1    1    2    0    0 +4.5532510893e+02 -4.9725333633e+02 +1.0393210606e+03 1.3820108675e+03 6.1252260000e+02 0.0000e+00 1.0000e+00
  1000022  1    1    2    0    0 -4.8049461836e+02 +4.9474254104e+02 -4.8111706146e+02 1.0403378406e+03 6.1252260000e+02 0.0000e+00 -1.0000e+00
       21  1    1    2  502  501 +2.5169509430e+01 +2.5107952937e+00 +7.7070293551e+01 8.1114970542e+01 0.0000000000e+00 0.0000e+00 1.0000e+00
<mgrwt>
<rscale>  1 0.92020633E+03</rscale>
<asrwt>0</asrwt>
<pdfrwt beam="2">  1        1 0.14370688E+00 0.92020633E+03</pdfrwt>
<pdfrwt beam="1">  1       -1 0.24144138E+00 0.92020633E+03</pdfrwt>
<totfact> 0.13797489E+00</totfact>
</mgrwt>
</event>
<event>
 5      1 +1.8937969e-08 6.41324000e+02 7.81665300e-03 9.82319700e-02
       -4 -1    0    0    0  501 -0.0000000000e+00 +0.0000000000e+00 +1.1403607398e+03 1.1403614470e+03 1.2700000000e+00 0.0000e+00 -1.0000e+00
        4 -1    0    0  502    0 +0.0000000000e+00 -0.0000000000e+00 -4.4956201534e+02 4.4956380919e+02 1.2700000000e+00 0.0000e+00 1.0000e+00
  1000022  1    1    2    0    0 -3.8039800655e+01 +1.7032796519e+02 +4.7028557152e+01 6.3863468654e+02 6.1252260000e+02 0.0000e+00 1.0000e+00
  1000022  1    1    2    0    0 +6.9302048042e+01 -1.8493951122e+02 +6.5166446975e+02 9.1589077587e+02 6.1252260000e+02 0.0000e+00 -1.0000e+00
       21  1    1    2  502  501 -3.1262247387e+01 +1.4611546029e+01 -7.8943024327e+00 3.5399793783e+01 0.0000000000e+00 0.0000e+00 -1.0000e+00
<mgrwt>
<rscale>  1 0.64132402E+03</rscale>
<asrwt>0</asrwt>
<pdfrwt beam="2">  1        4 0.69163580E-01 0.64132402E+03</pdfrwt>
<pdfrwt beam="1">  1       -4 0.17544031E+00 0.64132402E+03</pdfrwt>
<totfact> 0.73195196E-01</totfact>
</mgrwt>
</event>
<event>
 5      1 +1.8937969e-08 8.37996300e+02 7.81665300e-03 9.50659100e-02
       21 -1    0    0  501  502 +0.0000000000e+00 +0.0000000000e+00 +5.4019181112e+02 5.4019181112e+02 0.0000000000e+00 0.0000e+00 -1.0000e+00
       -3 -1    0    0    0  501 -0.0000000000e+00 -0.0000000000e+00 -1.4873990768e+03 1.4873990798e+03 9.5000000000e-02 0.0000e+00 -1.0000e+00
  1000022  1    1    2    0    0 +6.1825135560e+01 -5.2412354148e+02 -3.0999047532e+02 8.6591331230e+02 6.1252260000e+02 0.0000e+00 -1.0000e+00
  1000022  1    1    2    0    0 -1.9151841641e+00 +6.0961183474e+02 -5.9428385042e+02 1.0488028830e+03 6.1252260000e+02 0.0000e+00 -1.0000e+00
       -3  1    1    2    0  502 -5.9909951396e+01 -8.5488293263e+01 -4.2932939918e+01 1.1287469564e+02 9.5000000000e-02 0.0000e+00 1.0000e+00
<mgrwt>
<rscale>  1 0.83799627E+03</rscale>
<asrwt>0</asrwt>
<pdfrwt beam="1">  1       21 0.83106432E-01 0.83799627E+03</pdfrwt>
<pdfrwt beam="2">  1       -3 0.22883063E+00 0.83799627E+03</pdfrwt>
<totfact> 0.54676999E+00</totfact>
</mgrwt>
</event>
<event>
 5      1 +1.8937969e-08 6.64885300e+02 7.81665300e-03 9.77924200e-02
        1 -1    0    0  502    0 +0.0000000000e+00 +0.0000000000e+00 +1.7369552732e+03 1.7369552732e+03 5.0000000000e-03 0.0000e+00 -1.0000e+00
       -1 -1    0    0    0  501 -0.0000000000e+00 -0.0000000000e+00 -3.7104174157e+02 3.7104174160e+02 5.0000000000e-03 0.0000e+00 1.0000e+00
  1000022  1    1    2    0    0 +2.8397459976e+02 -4.0207423617e+00 +1.9074458316e+02 7.0158760764e+02 6.1252260000e+02 0.0000e+00 1.0000e+00
  1000022  1    1    2    0    0 -2.4769999913e+02 +3.9028046086e+01 +1.1828338577e+03 1.3554181452e+03 6.1252260000e+02 0.0000e+00 -1.0000e+00
       21  1    1    2  502  501 -3.6274600632e+01 -3.5007303724e+01 -7.6649091987e+00 5.0991261977e+01 0.0000000000e+00 0.0000e+00 -1.0000e+00
<mgrwt>
<rscale>  1 0.66488530E+03</rscale>
<asrwt>0</asrwt>
<pdfrwt beam="1">  1        1 0.26722389E+00 0.66488530E+03</pdfrwt>
<pdfrwt beam="2">  1       -1 0.57083344E-01 0.66488530E+03</pdfrwt>
<totfact> 0.14719569E+01</totfact>
</mgrwt>
</event>
<event>
 5      1 +1.8937969e-08 8.70132100e+02 7.81665300e-03 9.46370800e-02
       21 -1    0    0  501  502 +0.0000000000e+00 +0.0000000000e+00 +5.9127351468e+02 5.9127351468e+02 0.0000000000e+00 0.0000e+00 -1.0000e+00
       -3 -1    0    0    0  501 -0.0000000000e+00 -0.0000000000e+00 -2.1555908897e+03 2.1555908918e+03 9.5000000000e-02 0.0000e+00 -1.0000e+00
  1000022  1    1    2    0    0 -5.2706556017e+02 -6.2004915957e+02 -1.0693075346e+03 1.4767740532e+03 6.1252260000e+02 0.0000e+00 1.0000e+00
  1000022  1    1    2    0    0 +2.8150002153e+02 +3.1142776470e+02 -4.6144199606e+02 8.7426664467e+02 6.1252260000e+02 0.0000e+00 1.0000e+00
       -3  1    1    2    0  502 +2.4556553864e+02 +3.0862139487e+02 -3.3567844354e+01 3.9582370866e+02 9.5000000000e-02 0.0000e+00 1.0000e+00
<mgrwt>
<rscale>  1 0.87013209E+03</rscale>
<asrwt>0</asrwt>
<pdfrwt beam="1">  1       21 0.90965155E-01 0.87013209E+03</pdfrwt>
<pdfrwt beam="2">  1       -3 0.33162937E+00 0.87013209E+03</pdfrwt>
<totfact> 0.11518445E+00</totfact>
</mgrwt>
</event>
<event>
 5      1 +1.8937969e-08 8.78192800e+02 7.81665300e-03 9.45326000e-02
        3 -1    0    0  502    0 -0.0000000000e+00 +0.0000000000e+00 +1.0024528798e+03 1.0024528843e+03 9.5000000000e-02 0.0000e+00 -1.0000e+00
       21 -1    0    0  501  502 +0.0000000000e+00 -0.0000000000e+00 -1.0446087508e+03 1.0446087508e+03 0.0000000000e+00 0.0000e+00 -1.0000e+00
  1000022  1    1    2    0    0 +2.7003187162e+02 +5.8049074538e+02 +3.1777090801e+02 9.4130175962e+02 6.1252260000e+02 0.0000e+00 1.0000e+00
  1000022  1    1    2    0    0 -3.2589613365e+02 -5.2069405296e+02 -1.4987091968e+02 8.8032710670e+02 6.1252260000e+02 0.0000e+00 1.0000e+00
        3  1    1    2  501    0 +5.5864262023e+01 -5.9796692423e+01 -2.1005585932e+02 2.2543276881e+02 9.5000000000e-02 0.0000e+00 1.0000e+00
<mgrwt>
<rscale>  1 0.87819282E+03</rscale>
<asrwt>0</asrwt>
<pdfrwt beam="2">  1       21 0.16070904E+00 0.87819282E+03</pdfrwt>
<pdfrwt beam="1">  1        3 0.15422352E+00 0.87819282E+03</pdfrwt>
<totfact> 0.30694201E+00</totfact>
</mgrwt>
</event>
<event>
 5      1 +1.8937969e-08 6.28030100e+02 7.81665300e-03 9.84890000e-02
        2 -1    0    0  502    0 -0.0000000000e+00 +0.0000000000e+00 +2.7849958348e+03 2.7849958348e+03 2.5000000000e-03 0.0000e+00 -1.0000e+00
       21 -1    0    0  501  502 +0.0000000000e+00 -0.0000000000e+00 -4.3252435096e+02 4.3252435096e+02 0.0000000000e+00 0.0000e+00 1.0000e+00
  1000022  1    1    2    0    0 +1.4676540171e+02 -2.3942337645e+01 +2.3906559891e+03 2.4723538000e+03 6.1252260000e+02 0.0000e+00 -1.0000e+00
  1000022  1    1    2    0    0 -6.2433111111e+01 +4.4378352228e+01 +5.2663977751e+01 6.1953592436e+02 6.1252260000e+02 0.0000e+00 1.0000e+00
        2  1    1    2  501    0 -8.4332290600e+01 -2.0436014583e+01 -9.0848483075e+01 1.2563046133e+02 2.5000000000e-03 0.0000e+00 -1.0000e+00
<mgrwt>
<rscale>  1 0.62803011E+03</rscale>
<asrwt>0</asrwt>
<pdfrwt beam="2">  1       21 0.66542210E-01 0.62803011E+03</pdfrwt>
<pdfrwt beam="1">  1        2 0.42846089E+00 0.62803011E+03</pdfrwt>
<totfact> 0.59093785E+01</totfact>
</mgrwt>
</event>
<event>
 5      1 +1.8937969e-08 6.20771700e+02 7.81665300e-03 9.86322500e-02
        2 -1    0    0  502    0 +0.0000000000e+00 +0.0000000000e+00 +1.8923986852e+03 1.8923986852e+03 2.5000000000e-03 0.0000e+00 -1.0000e+00
       -2 -1    0    0    0  501 -0.0000000000e+00 -0.0000000000e+00 -5.8334378207e+02 5.8334378207e+02 2.5000000000e-03 0.0000e+00 1.0000e+00
  1000022  1    1    2    0    0 +4.1110934813e+01 -1.3439835816e+01 -2.4200418010e+02 6.6001567924e+02 6.1252260000e+02 0.0000e+00 1.0000e+00
  1000022  1    1    2    0    0 -1.0697611614e+02 -2.0682354317e+01 +1.6067349899e+03 1.7229779199e+03 6.1252260000e+02 0.0000e+00 -1.0000e+00
       21  1    1    2  502  501 +6.5865181324e+01 +3.4122190133e+01 -5.5675906620e+01 9.2748868178e+01 0.0000000000e+00 0.0000e+00 1.0000e+00
<mgrwt>
<rscale>  1 0.62077166E+03</rscale>
<asrwt>0</asrwt>
<pdfrwt beam="1">  1        2 0.29113826E+00 0.62077166E+03</pdfrwt>
<pdfrwt beam="2">  1       -2 0.89745197E-01 0.62077166E+03</pdfrwt>
<totfact> 0.86098304E+00</totfact>
</mgrwt>
</event>
<event>
 5      1 +1.8937969e-08 7.79144800e+02 7.81665300e-03 9.59070500e-02
        3 -1    0    0  502    0 +0.0000000000e+00 +0.0000000000e+00 +6.8067708808e+02 6.8067709471e+02 9.5000000000e-02 0.0000e+00 -1.0000e+00
       -3 -1    0    0    0  501 -0.0000000000e+00 -0.0000000000e+00 -1.4484764391e+03 1.4484764422e+03 9.5000000000e-02 0.0000e+00 -1.0000e+00
  1000022  1    1    2    0    0 -4.3302866969e+02 +1.9702638058e+02 +4.0502182359e+00 7.7558594830e+02 6.1252260000e+02 0.0000e+00 1.0000e+00
  1000022  1    1    2    0    0 +4.2918221879e+02 -2.2342708854e+02 -9.1800113821e+02 1.2050008573e+03 6.1252260000e+02 0.0000e+00 1.0000e+00
       21  1    1    2  502  501 +3.8464508985e+00 +2.6400707957e+01 +1.4615156893e+02 1.4856673136e+02 0.0000000000e+00 0.0000e+00 1.0000e+00
<mgrwt>
<rscale>  1 0.77914478E+03</rscale>
<asrwt>0</asrwt>
<pdfrwt beam="1">  1        3 0.10471955E+00 0.77914478E+03</pdfrwt>
<pdfrwt beam="2">  1       -3 0.22284253E+00 0.77914478E+03</pdfrwt>
<totfact> 0.21564889E-01</totfact>
</mgrwt>
</event>
<event>
 5      1 +1.8937969e-08 7.92994500e+02 7.81665300e-03 9.57021300e-02
       -3 -1    0    0    0  501 -0.0000000000e+00 +0.0000000000e+00 +8.7850348757e+02 8.7850349270e+02 9.5000000000e-02 0.0000e+00 -1.0000e+00
        3 -1    0    0  502    0 +0.0000000000e+00 -0.0000000000e+00 -1.0270010209e+03 1.0270010253e+03 9.5000000000e-02 0.0000e+00 -1.0000e+00
  1000022  1    1    2    0    0 -2.2186406100e+02 +4.9765223895e+02 +2.3846518624e+02 8.5377455634e+02 6.1252260000e+02 0.0000e+00 1.0000e+00
  1000022  1    1    2    0    0 +1.8384183190e+02 -4.5147789931e+02 -4.9644825255e+02 9.2697082785e+02 6.1252260000e+02 0.0000e+00 1.0000e+00
       21  1    1    2  502  501 +3.8022229099e+01 -4.6174339636e+01 +1.0948553295e+02 1.2475913382e+02 0.0000000000e+00 0.0000e+00 1.0000e+00
<mgrwt>
<rscale>  1 0.79299453E+03</rscale>
<asrwt>0</asrwt>
<pdfrwt beam="2">  1        3 0.15800016E+00 0.79299453E+03</pdfrwt>
<pdfrwt beam="1">  1       -3 0.13515438E+00 0.79299453E+03</pdfrwt>
<totfact> 0.30668559E-01</totfact>
</mgrwt>
</event>
<event>
 5      1 +1.8937969e-08 7.39930000e+02 7.81665300e-03 9.65128200e-02
       21 -1    0    0  501  502 +0.0000000000e+00 +0.0000000000e+00 +8.7926496715e+02 8.7926496715e+02 0.0000000000e+00 0.0000e+00 1.0000e+00
        2 -1    0    0  502    0 -0.0000000000e+00 -0.0000000000e+00 -1.7552653155e+03 1.7552653155e+03 2.5000000000e-03 0.0000e+00 -1.0000e+00
  1000022  1    1    2    0    0 +5.4229679150e+02 +5.2940396910e+02 -4.3883416385e+01 9.7543019346e+02 6.1252260000e+02 0.0000e+00 1.0000e+00
  1000022  1    1    2    0    0 -1.0504509607e+02 -3.2664243786e+02 -9.3203321982e+02 1.1668760057e+03 6.1252260000e+02 0.0000e+00 -1.0000e+00
        2  1    1    2  501    0 -4.3725169544e+02 -2.0276153124e+02 +9.9916287871e+01 4.9222408342e+02 2.5000000000e-03 0.0000e+00 -1.0000e+00
<mgrwt>
<rscale>  1 0.73993003E+03</rscale>
<asrwt>0</asrwt>
<pdfrwt beam="1">  1       21 0.13527154E+00 0.73993003E+03</pdfrwt>
<pdfrwt beam="2">  1        2 0.27004081E+00 0.73993003E+03</pdfrwt>
<totfact> 0.38131384E+01</totfact>
</mgrwt>
</event>
<event>
 5      1 +1.8937969e-08 8.35068900e+02 7.81665300e-03 9.51059900e-02
        3 -1    0    0  502    0 -0.0000000000e+00 +0.0000000000e+00 +1.5041104637e+03 1.5041104667e+03 9.5000000000e-02 0.0000e+00 1.0000e+00
       21 -1    0    0  501  502 +0.0000000000e+00 -0.0000000000e+00 -7.8710349355e+02 7.8710349355e+02 0.0000000000e+00 0.0000e+00 1.0000e+00
  1000022  1    1    2    0    0 +1.6010496733e+02 -6.9043664971e+02 +2.3982459003e+02 9.6697266627e+02 6.1252260000e+02 0.0000e+00 -1.0000e+00
  1000022  1    1    2    0    0 +5.6010831265e+01 +5.0147918940e+02 +6.1671229122e+02 1.0050555090e+03 6.1252260000e+02 0.0000e+00 -1.0000e+00
        3  1    1    2  501    0 -2.1611579859e+02 +1.8895746031e+02 -1.3952991107e+02 3.1918578496e+02 9.5000000000e-02 0.0000e+00 -1.0000e+00
<mgrwt>
<rscale>  1 0.83506885E+03</rscale>
<asrwt>0</asrwt>
<pdfrwt beam="2">  1       21 0.12109285E+00 0.83506885E+03</pdfrwt>
<pdfrwt beam="1">  1        3 0.23140161E+00 0.83506885E+03</pdfrwt>
<totfact> 0.21034672E+00</totfact>
</mgrwt>
</event>
<event>
 5      1 +1.8937969e-08 8.41784200e+02 7.81665300e-03 9.50143100e-02
       -3 -1    0    0    0  501 -0.0000000000e+00 +0.0000000000e+00 +7.6307348609e+02 7.6307349200e+02 9.5000000000e-02 0.0000e+00 1.0000e+00
        3 -1    0    0  502    0 +0.0000000000e+00 -0.0000000000e+00 -1.1992745872e+03 1.1992745910e+03 9.5000000000e-02 0.0000e+00 1.0000e+00
  1000022  1    1    2    0    0 -3.7546211691e+02 -4.4589248312e+02 +3.5710753363e+01 8.4631619455e+02 6.1252260000e+02 0.0000e+00 -1.0000e+00
  1000022  1    1    2    0    0 +2.9116633881e+02 +4.9869873756e+02 -5.3574635345e+02 9.9784084826e+02 6.1252260000e+02 0.0000e+00 -1.0000e+00
       21  1    1    2  502  501 +8.4295778103e+01 -5.2806254442e+01 +6.3834498975e+01 1.1819104016e+02 0.0000000000e+00 0.0000e+00 1.0000e+00
<mgrwt>
<rscale>  1 0.84178420E+03</rscale>
<asrwt>0</asrwt>
<pdfrwt beam="2">  1        3 0.18450378E+00 0.84178420E+03</pdfrwt>
<pdfrwt beam="1">  1       -3 0.11739592E+00 0.84178420E+03</pdfrwt>
<totfact> 0.28456470E-01</totfact>
</mgrwt>
</event>
<event>
 5      1 +1.8937969e-08 8.69675100e+02 7.81665300e-03 9.46430400e-02
       -3 -1    0    0    0  501 -0.0000000000e+00 +0.0000000000e+00 +1.2374066890e+03 1.2374066927e+03 9.5000000000e-02 0.0000e+00 1.0000e+00
        3 -1    0    0  502    0 +0.0000000000e+00 -0.0000000000e+00 -6.5816100582e+02 6.5816101268e+02 9.5000000000e-02 0.0000e+00 1.0000e+00
  1000022  1    1    2    0    0 -5.7209749123e+02 +2.3947256524e+02 +2.1581203880e+02 8.9799856380e+02 6.1252260000e+02 0.0000e+00 -1.0000e+00
  1000022  1    1    2    0    0 +5.7583030572e+02 -2.1670342737e+02 +3.9876317199e+02 9.5537265989e+02 6.1252260000e+02 0.0000e+00 -1.0000e+00
       21  1    1    2  502  501 -3.7328144861e+00 -2.2769137872e+01 -3.5329527598e+01 4.2196481651e+01 0.0000000000e+00 0.0000e+00 1.0000e+00
<mgrwt>
<rscale>  1 0.86967507E+03</rscale>
<asrwt>0</asrwt>
<pdfrwt beam="2">  1        3 0.10125554E+00 0.86967507E+03</pdfrwt>
<pdfrwt beam="1">  1       -3 0.19037026E+00 0.86967507E+03</pdfrwt>
<totfact> 0.36943518E-01</totfact>
</mgrwt>
</event>
<event>
 5      1 +1.8937969e-08 6.98593000e+02 7.81665300e-03 9.71964100e-02
        3 -1    0    0  502    0 +0.0000000000e+00 +0.0000000000e+00 +4.7869298800e+02 4.7869299743e+02 9.5000000000e-02 0.0000e+00 1.0000e+00
       -3 -1    0    0    0  501 -0.0000000000e+00 -0.0000000000e+00 -1.6998729024e+03 1.6998729050e+03 9.5000000000e-02 0.0000e+00 1.0000e+00
  1000022  1    1    2    0    0 +3.0932620435e+02 +8.4196799709e+01 -1.2127785260e+03 1.3959897888e+03 6.1252260000e+02 0.0000e+00 1.0000e+00
  1000022  1    1    2    0    0 -3.3315873320e+02 -6.7002868066e+01 +6.5023564230e+01 7.0348853953e+02 6.1252260000e+02 0.0000e+00 1.0000e+00
       21  1    1    2  502  501 +2.3832528847e+01 -1.7193931643e+01 -7.3424952641e+01 7.9087574162e+01 0.0000000000e+00 0.0000e+00 -1.0000e+00
<mgrwt>
<rscale>  1 0.69859299E+03</rscale>
<asrwt>0</asrwt>
<pdfrwt beam="1">  1        3 0.73645077E-01 0.69859299E+03</pdfrwt>
<pdfrwt beam="2">  1       -3 0.26151891E+00 0.69859299E+03</pdfrwt>
<totfact> 0.28951902E-01</totfact>
</mgrwt>
</event>
<event>
 5      1 +1.8937969e-08 8.69236100e+02 7.81665300e-03 9.46487600e-02
        1 -1    0    0  502    0 +0.0000000000e+00 +0.0000000000e+00 +6.5300443607e+02 6.5300443609e+02 5.0000000000e-03 0.0000e+00 -1.0000e+00
       -1 -1    0    0    0  501 -0.0000000000e+00 -0.0000000000e+00 -1.3861829005e+03 1.3861829005e+03 5.0000000000e-03 0.0000e+00 -1.0000e+00
  1000022  1    1    2    0    0 +6.2245425317e+02 +1.2026671242e+02 -3.4004112359e+02 9.4484140503e+02 6.1252260000e+02 0.0000e+00 1.0000e+00
  1000022  1    1    2    0    0 -5.8480340033e+02 -1.4689328641e+02 -1.8243670813e+02 8.7865792127e+02 6.1252260000e+02 0.0000e+00 1.0000e+00
       21  1    1    2  502  501 -3.7650852843e+01 +2.6626573993e+01 -2.1070063274e+02 2.1568801033e+02 0.0000000000e+00 0.0000e+00 -1.0000e+00
<mgrwt>
<rscale>  1 0.86923613E+03</rscale>
<asrwt>0</asrwt>
<pdfrwt beam="1">  1        1 0.10046222E+00 0.86923613E+03</pdfrwt>
<pdfrwt beam="2">  1       -1 0.21325891E+00 0.86923613E+03</pdfrwt>
<totfact> 0.37740346E+00</totfact>
</mgrwt>
</event>
<event>
 5      1 +1.8937969e-08 7.23970700e+02 7.81665300e-03 9.67709500e-02
       -3 -1    0    0    0  501 -0.0000000000e+00 +0.0000000000e+00 +2.9858895511e+02 2.9858897023e+02 9.5000000000e-02 0.0000e+00 -1.0000e+00
        3 -1    0    0  502    0 +0.0000000000e+00 -0.0000000000e+00 -2.7300604154e+03 2.7300604171e+03 9.5000000000e-02 0.0000e+00 -1.0000e+00
  1000022  1    1    2    0    0 -3.8604582769e+02 +3.2721807622e+01 -2.0184485022e+03 2.1446259323e+03 6.1252260000e+02 0.0000e+00 1.0000e+00
  1000022  1    1    2    0    0 +3.8278561467e+02 +1.8349873923e+01 -3.4998949797e+02 8.0283132031e+02 6.1252260000e+02 0.0000e+00 1.0000e+00
       21  1    1    2  502  501 +3.2602130204e+00 -5.1071681545e+01 -6.3033460111e+01 8.1192134708e+01 0.0000000000e+00 0.0000e+00 -1.0000e+00
<mgrwt>
<rscale>  1 0.72397066E+03</rscale>
<asrwt>0</asrwt>
<pdfrwt beam="2">  1        3 0.42000928E+00 0.72397066E+03</pdfrwt>
<pdfrwt beam="1">  1       -3 0.45936766E-01 0.72397066E+03</pdfrwt>
<totfact> 0.11157052E-01</totfact>
</mgrwt>
</event>
<event>
 5      1 +1.8937969e-08 7.66681200e+02 7.81665300e-03 9.60953800e-02
       -3 -1    0    0    0  501 -0.0000000000e+00 +0.0000000000e+00 +1.5193682722e+03 1.5193682751e+03 9.5000000000e-02 0.0000e+00 1.0000e+00
        3 -1    0    0  502    0 +0.0000000000e+00 -0.0000000000e+00 -5.7450574017e+02 5.7450574803e+02 9.5000000000e-02 0.0000e+00 1.0000e+00
  1000022  1    1    2    0    0 +1.5880455823e+02 +4.1097284373e+02 +1.8470699552e+01 7.5474675770e+02 6.1252260000e+02 0.0000e+00 -1.0000e+00
  1000022  1    1    2    0    0 -1.9824946941e+02 -4.2474179267e+02 +9.9491752404e+02 1.2588698335e+03 6.1252260000e+02 0.0000e+00 -1.0000e+00
       21  1    1    2  502  501 +3.9444911178e+01 +1.3768948940e+01 -6.8525691608e+01 8.0257431949e+01 0.0000000000e+00 0.0000e+00 1.0000e+00
<mgrwt>
<rscale>  1 0.76668121E+03</rscale>
<asrwt>0</asrwt>
<pdfrwt beam="2">  1        3 0.88385502E-01 0.76668121E+03</pdfrwt>
<pdfrwt beam="1">  1       -3 0.23374896E+00 0.76668121E+03</pdfrwt>
<totfact> 0.27611425E-01</totfact>
</mgrwt>
</event>
<event>
 5      1 +1.8937969e-08 8.52359800e+02 7.81665300e-03 9.48717500e-02
       -2 -1    0    0    0  501 -0.0000000000e+00 +0.0000000000e+00 +1.7216994907e+03 1.7216994907e+03 2.5000000000e-03 0.0000e+00 1.0000e+00
        2 -1    0    0  502    0 +0.0000000000e+00 -0.0000000000e+00 -1.6494543019e+03 1.6494543019e+03 2.5000000000e-03 0.0000e+00 -1.0000e+00
  1000022  1    1    2    0    0 +3.6326306651e+02 +4.9191847344e+02 -5.4462994210e+02 1.0226189659e+03 6.1252260000e+02 0.0000e+00 -1.0000e+00
  1000022  1    1    2    0    0 -2.9423700089e+02 -4.9756912419e+02 -6.5985561857e+02 1.0699270157e+03 6.1252260000e+02 0.0000e+00 1.0000e+00
       21  1    1    2  502  501 -6.9026065620e+01 +5.6506507548e+00 +1.2767307496e+03 1.2786078110e+03 0.0000000000e+00 0.0000e+00 1.0000e+00
<mgrwt>
<rscale>  1 0.85235984E+03</rscale>
<asrwt>0</asrwt>
<pdfrwt beam="2">  1        2 0.25376220E+00 0.85235984E+03</pdfrwt>
<pdfrwt beam="1">  1       -2 0.26487684E+00 0.85235984E+03</pdfrwt>
<totfact> 0.56000664E-01</totfact>
</mgrwt>
</event>
<event>
 5      1 +1.8937969e-08 8.84107600e+02 7.81665300e-03 9.44566900e-02
        3 -1    0    0  502    0 -0.0000000000e+00 +0.0000000000e+00 +2.1107619830e+03 2.1107619852e+03 9.5000000000e-02 0.0000e+00 1.0000e+00
       21 -1    0    0  501  502 +0.0000000000e+00 -0.0000000000e+00 -4.8011595045e+02 4.8011595045e+02 0.0000000000e+00 0.0000e+00 1.0000e+00
  1000022  1    1    2    0    0 -1.7722060331e+02 +6.4187655088e+02 +7.8163005939e+02 1.1956346156e+03 6.1252260000e+02 0.0000e+00 -1.0000e+00
  1000022  1    1    2    0    0 +1.5535525449e+02 -5.9450686370e+02 +9.4692616831e+02 1.2843001089e+03 6.1252260000e+02 0.0000e+00 -1.0000e+00
        3  1    1    2  501    0 +2.1865348811e+01 -4.7369687185e+01 -9.7910195134e+01 1.1094321105e+02 9.5000000000e-02 0.0000e+00 -1.0000e+00
<mgrwt>
<rscale>  1 0.88410764E+03</rscale>
<asrwt>0</asrwt>
<pdfrwt beam="2">  1       21 0.73863994E-01 0.88410764E+03</pdfrwt>
<pdfrwt beam="1">  1        3 0.32473261E+00 0.88410764E+03</pdfrwt>
<totfact> 0.20964854E+00</totfact>
</mgrwt>
</event>
<event>
 5      1 +1.8937969e-08 6.64390000e+02 7.81665300e-03 9.78014600e-02
       21 -1    0    0  501  502 +0.0000000000e+00 +0.0000000000e+00 +1.3404778414e+03 1.3404778414e+03 0.0000000000e+00 0.0000e+00 1.0000e+00
        3 -1    0    0  502    0 -0.0000000000e+00 -0.0000000000e+00 -6.6727995791e+02 6.6727996467e+02 9.5000000000e-02 0.0000e+00 1.0000e+00
  1000022  1    1    2    0    0 +4.5446958381e+01 -2.8727267018e+02 +8.3112299974e+02 1.0726324577e+03 6.1252260000e+02 0.0000e+00 -1.0000e+00
  1000022  1    1    2    0    0 -9.0950049126e+01 +2.3430809002e+02 -3.3700110435e+02 7.4291713692e+02 6.1252260000e+02 0.0000e+00 -1.0000e+00
        3  1    1    2  501    0 +4.5503090745e+01 +5.2964580153e+01 +1.7907598809e+02 1.9220821146e+02 9.5000000000e-02 0.0000e+00 -1.0000e+00
<mgrwt>
<rscale>  1 0.66439002E+03</rscale>
<asrwt>0</asrwt>
<pdfrwt beam="1">  1       21 0.20622736E+00 0.66439002E+03</pdfrwt>
<pdfrwt beam="2">  1        3 0.10265846E+00 0.66439002E+03</pdfrwt>
<totfact> 0.41693681E+00</totfact>
</mgrwt>
</event>
<event>
 5      1 +1.8937969e-08 6.46013000e+02 7.81665300e-03 9.81428900e-02
       -2 -1    0    0    0  501 -0.0000000000e+00 +0.0000000000e+00 +2.1689799871e+02 2.1689799873e+02 2.5000000000e-03 0.0000e+00 1.0000e+00
        2 -1    0    0  502    0 +0.0000000000e+00 -0.0000000000e+00 -2.0251664155e+03 2.0251664155e+03 2.5000000000e-03 0.0000e+00 -1.0000e+00
  1000022  1    1    2    0    0 +1.1367267525e+02 -1.6448990641e+02 -7.6397037054e+02 9.9940635829e+02 6.1252260000e+02 0.0000e+00 1.0000e+00
  1000022  1    1    2    0    0 -1.0258467532e+02 +1.8317863599e+02 -1.0300890669e+03 1.2166944767e+03 6.1252260000e+02 0.0000e+00 -1.0000e+00
       21  1    1    2  502  501 -1.1087999931e+01 -1.8688729580e+01 -1.4208979390e+01 2.5963579319e+01 0.0000000000e+00 0.0000e+00 1.0000e+00
<mgrwt>
<rscale>  1 0.64601304E+03</rscale>
<asrwt>0</asrwt>
<pdfrwt beam="2">  1        2 0.31156405E+00 0.64601304E+03</pdfrwt>
<pdfrwt beam="1">  1       -2 0.33368924E-01 0.64601304E+03</pdfrwt>
<totfact> 0.56638182E+01</totfact>
</mgrwt>
</event>
<event>
 5      1 +1.8937969e-08 7.30995700e+02 7.81665300e-03 9.66564600e-02
        2 -1    0    0  502    0 -0.0000000000e+00 +0.0000000000e+00 +1.4195699616e+03 1.4195699616e+03 2.5000000000e-03 0.0000e+00 -1.0000e+00
       21 -1    0    0  501  502 +0.0000000000e+00 -0.0000000000e+00 -5.8130715480e+02 5.8130715480e+02 0.0000000000e+00 0.0000e+00 1.0000e+00
  1000022  1    1    2    0    0 +3.7154143264e+02 -7.1608573029e+01 +8.7123791351e+02 1.1302257568e+03 6.1252260000e+02 0.0000e+00 -1.0000e+00
  1000022  1    1    2    0    0 -4.6361490734e+02 +4.9889075448e+01 -6.0335844139e+01 7.7217358913e+02 6.1252260000e+02 0.0000e+00 1.0000e+00
        2  1    1    2  501    0 +9.2073474702e+01 +2.1719497581e+01 +2.7360737460e+01 9.8477770484e+01 2.5000000000e-03 0.0000e+00 -1.0000e+00
<mgrwt>
<rscale>  1 0.73099565E+03</rscale>
<asrwt>0</asrwt>
<pdfrwt beam="2">  1       21 0.89431870E-01 0.73099565E+03</pdfrwt>
<pdfrwt beam="1">  1        2 0.21839538E+00 0.73099565E+03</pdfrwt>
<totfact> 0.16619737E+02</totfact>
</mgrwt>
</event>
<event>
 5      1 +1.8937969e-08 8.39519600e+02 7.81665300e-03 9.50451200e-02
        1 -1    0    0  502    0 +0.0000000000e+00 +0.0000000000e+00 +5.6667039147e+02 5.6667039150e+02 5.0000000000e-03 0.0000e+00 1.0000e+00
       -1 -1    0    0    0  501 -0.0000000000e+00 -0.0000000000e+00 -1.4199020974e+03 1.4199020974e+03 5.0000000000e-03 0.0000e+00 1.0000e+00
  1000022  1    1    2    0    0 +2.6673411314e+02 -4.9897085964e+02 -1.4195668432e+02 8.4584551877e+02 6.1252260000e+02 0.0000e+00 -1.0000e+00
  1000022  1    1    2    0    0 -2.4744777629e+02 +5.3501920495e+02 -6.6759664573e+02 1.0809001659e+03 6.1252260000e+02 0.0000e+00 -1.0000e+00
       21  1    1    2  502  501 -1.9286336851e+01 -3.6048345315e+01 -4.3678375838e+01 5.9826804235e+01 0.0000000000e+00 0.0000e+00 1.0000e+00
<mgrwt>
<rscale>  1 0.83951963E+03</rscale>
<asrwt>0</asrwt>
<pdfrwt beam="1">  1        1 0.87180060E-01 0.83951963E+03</pdfrwt>
<pdfrwt beam="2">  1       -1 0.21844648E+00 0.83951963E+03</pdfrwt>
<totfact> 0.42965491E+00</totfact>
</mgrwt>
</event>
<event>
 5      1 +1.8937969e-08 8.36349200e+02 7.81665300e-03 9.50884400e-02
       -3 -1    0    0    0  501 -0.0000000000e+00 +0.0000000000e+00 +3.4588044546e+03 3.4588044559e+03 9.5000000000e-02 0.0000e+00 1.0000e+00
       21 -1    0    0  501  502 +0.0000000000e+00 -0.0000000000e+00 -5.0627709827e+02 5.0627709827e+02 0.0000000000e+00 0.0000e+00 1.0000e+00
  1000022  1    1    2    0    0 -4.6698271134e+02 -4.4761377281e+02 +2.2391154433e+03 2.4098242355e+03 6.1252260000e+02 0.0000e+00 -1.0000e+00
  1000022  1    1    2    0    0 +3.6967736168e+02 +2.6163897837e+02 +9.6382131635e+02 1.2285160854e+03 6.1252260000e+02 0.0000e+00 -1.0000e+00
       -3  1    1    2    0  502 +9.7305349651e+01 +1.8597479444e+02 -2.5040940328e+02 3.2674123326e+02 9.5000000000e-02 0.0000e+00 -1.0000e+00
<mgrwt>
<rscale>  1 0.83634921E+03</rscale>
<asrwt>0</asrwt>
<pdfrwt beam="2">  1       21 0.77888787E-01 0.83634921E+03</pdfrwt>
<pdfrwt beam="1">  1       -3 0.53212375E+00 0.83634921E+03</pdfrwt>
<totfact> 0.13915641E-01</totfact>
</mgrwt>
</event>
<event>
 5      1 +1.8937969e-08 9.74472600e+02 7.81665300e-03 9.33699500e-02
       -1 -1    0    0    0  501 -0.0000000000e+00 +0.0000000000e+00 +1.1219460746e+03 1.1219460746e+03 5.0000000000e-03 0.0000e+00 1.0000e+00
        1 -1    0    0  502    0 +0.0000000000e+00 -0.0000000000e+00 -8.9248908079e+02 8.9248908080e+02 5.0000000000e-03 0.0000e+00 -1.0000e+00
  1000022  1    1    2    0    0 -6.3538244511e+02 +4.3474547685e+02 +1.3944754169e+02 9.9365186740e+02 6.1252260000e+02 0.0000e+00 1.0000e+00
  1000022  1    1    2    0    0 +5.9062294603e+02 -4.5801823476e+02 +8.3971221640e+01 9.6997488077e+02 6.1252260000e+02 0.0000e+00 -1.0000e+00
       21  1    1    2  502  501 +4.4759499084e+01 +2.3272757918e+01 +6.0382304855e+00 5.0808407245e+01 0.0000000000e+00 0.0000e+00 -1.0000e+00
<mgrwt>
<rscale>  1 0.97447257E+03</rscale>
<asrwt>0</asrwt>
<pdfrwt beam="2">  1        1 0.13730601E+00 0.97447257E+03</pdfrwt>
<pdfrwt beam="1">  1       -1 0.17260709E+00 0.97447257E+03</pdfrwt>
<totfact> 0.43716982E+00</totfact>
</mgrwt>
</event>
<event>
 5      1 +1.8937969e-08 8.33201000e+02 7.81665300e-03 9.51316600e-02
       -3 -1    0    0    0  501 -0.0000000000e+00 +0.0000000000e+00 +1.2561366470e+03 1.2561366506e+03 9.5000000000e-02 0.0000e+00 1.0000e+00
        3 -1    0    0  502    0 +0.0000000000e+00 -0.0000000000e+00 -7.4389579066e+02 7.4389579673e+02 9.5000000000e-02 0.0000e+00 1.0000e+00
  1000022  1    1    2    0    0 +9.5342544212e+01 -5.8861579973e+02 +6.3338850375e+02 1.0639190254e+03 6.1252260000e+02 0.0000e+00 -1.0000e+00
  1000022  1    1    2    0    0 -1.1838379165e+02 +4.9221970253e+02 -2.0591336416e+01 7.9492320153e+02 6.1252260000e+02 0.0000e+00 -1.0000e+00
       21  1    1    2  502  501 +2.3041247439e+01 +9.6396097196e+01 -1.0055631102e+02 1.4119022036e+02 0.0000000000e+00 0.0000e+00 -1.0000e+00
<mgrwt>
<rscale>  1 0.83320103E+03</rscale>
<asrwt>0</asrwt>
<pdfrwt beam="2">  1        3 0.11444551E+00 0.83320103E+03</pdfrwt>
<pdfrwt beam="1">  1       -3 0.19325179E+00 0.83320103E+03</pdfrwt>
<totfact> 0.26474578E-01</totfact>
</mgrwt>
</event>
<event>
 5      1 +1.8937969e-08 9.81662200e+02 7.81665300e-03 9.40043700e-02
        1 -1    0    0  502    0 -0.0000000000e+00 +0.0000000000e+00 +1.6867214665e+03 1.6867214665e+03 5.0000000000e-03 0.0000e+00 1.0000e+00
       21 -1    0    0  501  502 +0.0000000000e+00 -0.0000000000e+00 -4.8643098232e+02 4.8643098232e+02 0.0000000000e+00 0.0000e+00 1.0000e+00
  1000022  1    1    2    0    0 -8.2055835409e+01 -3.0518965428e+01 +2.5621045399e+02 6.6969567687e+02 6.1252260000e+02 0.0000e+00 -1.0000e+00
  1000022  1    1    2    0    0 +4.4154767016e+02 +7.3024168045e+01 +8.2876946381e+02 1.1235388884e+03 6.1252260000e+02 0.0000e+00 1.0000e+00
        1  1    1    2  501    0 -3.5949183475e+02 -4.2505202618e+01 +1.1531056640e+02 3.7991788356e+02 5.0000000000e-03 0.0000e+00 1.0000e+00
<mgrwt>
<rscale>  1 0.92039748E+03</rscale>
<asrwt>0</asrwt>
<pdfrwt beam="2">  1       21 0.74835537E-01 0.98166224E+03</pdfrwt>
<pdfrwt beam="1">  1        1 0.25949561E+00 0.98166224E+03</pdfrwt>
<totfact> 0.73879435E+01</totfact>
</mgrwt>
</event>
<event>
 5      1 +1.8937969e-08 7.62934100e+02 7.81665300e-03 9.61527500e-02
        3 -1    0    0  502    0 +0.0000000000e+00 +0.0000000000e+00 +8.5795023853e+02 8.5795024379e+02 9.5000000000e-02 0.0000e+00 1.0000e+00
       -3 -1    0    0    0  501 -0.0000000000e+00 -0.0000000000e+00 -9.2759594739e+02 9.2759595225e+02 9.5000000000e-02 0.0000e+00 1.0000e+00
  1000022  1    1    2    0    0 -4.3364903605e+02 -1.0525575096e+02 +3.5936338972e+02 8.3872298225e+02 6.1252260000e+02 0.0000e+00 -1.0000e+00
  1000022  1    1    2    0    0 +4.3938189835e+02 +1.2944557171e+02 -4.7084383617e+02 8.9815948595e+02 6.1252260000e+02 0.0000e+00 -1.0000e+00
       21  1    1    2  502  501 -5.7328622973e+00 -2.4189820748e+01 +4.1834737592e+01 4.8663727841e+01 0.0000000000e+00 0.0000e+00 1.0000e+00
<mgrwt>
<rscale>  1 0.76293408E+03</rscale>
<asrwt>0</asrwt>
<pdfrwt beam="1">  1        3 0.13199234E+00 0.76293408E+03</pdfrwt>
<pdfrwt beam="2">  1       -3 0.14270707E+00 0.76293408E+03</pdfrwt>
<totfact> 0.42458740E-01</totfact>
</mgrwt>
</event>
<event>
 5      1 +1.8937969e-08 8.76311000e+02 7.81665300e-03 9.45568800e-02
        3 -1    0    0  502    0 +0.0000000000e+00 +0.0000000000e+00 +5.1072930702e+02 5.1072931586e+02 9.5000000000e-02 0.0000e+00 -1.0000e+00
       -3 -1    0    0    0  501 -0.0000000000e+00 -0.0000000000e+00 -1.7381108183e+03 1.7381108209e+03 9.5000000000e-02 0.0000e+00 -1.0000e+00
  1000022  1    1    2    0    0 +6.1729537775e+01 -6.3889092529e+02 -6.3665133230e+02 1.0920169434e+03 6.1252260000e+02 0.0000e+00 1.0000e+00
  1000022  1    1    2    0    0 -5.0113262509e+01 +6.1029836559e+02 -6.5475063488e+02 1.0857521649e+03 6.1252260000e+02 0.0000e+00 1.0000e+00
       21  1    1    2  502  501 -1.1616275266e+01 +2.8592559699e+01 +6.4020455882e+01 7.1071028503e+01 0.0000000000e+00 0.0000e+00 1.0000e+00
<mgrwt>
<rscale>  1 0.87631104E+03</rscale>
<asrwt>0</asrwt>
<pdfrwt beam="1">  1        3 0.78573741E-01 0.87631104E+03</pdfrwt>
<pdfrwt beam="2">  1       -3 0.26740166E+00 0.87631104E+03</pdfrwt>
<totfact> 0.22856848E-01</totfact>
</mgrwt>
</event>
<event>
 5      1 +1.8937969e-08 7.41640700e+02 7.81665300e-03 9.64855700e-02
       -1 -1    0    0    0  501 -0.0000000000e+00 +0.0000000000e+00 +1.1535347629e+03 1.1535347629e+03 5.0000000000e-03 0.0000e+00 1.0000e+00
        1 -1    0    0  502    0 +0.0000000000e+00 -0.0000000000e+00 -6.9664144293e+02 6.9664144295e+02 5.0000000000e-03 0.0000e+00 1.0000e+00
  1000022  1    1    2    0    0 +2.0321398563e+02 +3.6315715441e+02 -2.6759455407e+02 7.8738162516e+02 6.1252260000e+02 0.0000e+00 -1.0000e+00
  1000022  1    1    2    0    0 -2.2648643140e+02 -3.5960654788e+02 +6.6573180274e+02 9.9949774466e+02 6.1252260000e+02 0.0000e+00 -1.0000e+00
       21  1    1    2  502  501 +2.3272445769e+01 -3.5506065266e+00 +5.8756071279e+01 6.3296836026e+01 0.0000000000e+00 0.0000e+00 1.0000e+00
<mgrwt>
<rscale>  1 0.74164071E+03</rscale>
<asrwt>0</asrwt>
<pdfrwt beam="2">  1        1 0.10717561E+00 0.74164071E+03</pdfrwt>
<pdfrwt beam="1">  1       -1 0.17746689E+00 0.74164071E+03</pdfrwt>
<totfact> 0.61677803E+00</totfact>
</mgrwt>
</event>
<event>
 5      1 +1.8937969e-08 7.52415200e+02 7.81665300e-03 9.63156900e-02
       -3 -1    0    0    0  501 -0.0000000000e+00 +0.0000000000e+00 +3.4635383362e+02 3.4635384665e+02 9.5000000000e-02 0.0000e+00 1.0000e+00
        3 -1    0    0  502    0 +0.0000000000e+00 -0.0000000000e+00 -2.3231897600e+03 2.3231897619e+03 9.5000000000e-02 0.0000e+00 1.0000e+00
  1000022  1    1    2    0    0 -2.0166890483e+02 +3.8579772133e+02 -1.6613890388e+03 1.8234329444e+03 6.1252260000e+02 0.0000e+00 -1.0000e+00
  1000022  1    1    2    0    0 +1.8416016080e+02 -4.0235693636e+02 -3.2161534309e+02 8.2123470061e+02 6.1252260000e+02 0.0000e+00 -1.0000e+00
       21  1    1    2  502  501 +1.7508744032e+01 +1.6559215031e+01 +6.1684555209e+00 2.4875963570e+01 0.0000000000e+00 0.0000e+00 -1.0000e+00
<mgrwt>
<rscale>  1 0.75241521E+03</rscale>
<asrwt>0</asrwt>
<pdfrwt beam="2">  1        3 0.35741380E+00 0.75241521E+03</pdfrwt>
<pdfrwt beam="1">  1       -3 0.53285208E-01 0.75241521E+03</pdfrwt>
<totfact> 0.17522437E-01</totfact>
</mgrwt>
</event>
<event>
 5      1 +1.8937969e-08 6.20245000e+02 7.81665300e-03 9.86427200e-02
       -3 -1    0    0    0  501 -0.0000000000e+00 +0.0000000000e+00 +1.1489601320e+03 1.1489601359e+03 9.5000000000e-02 0.0000e+00 -1.0000e+00
        3 -1    0    0  502    0 +0.0000000000e+00 -0.0000000000e+00 -8.0047638181e+02 8.0047638745e+02 9.5000000000e-02 0.0000e+00 -1.0000e+00
  1000022  1    1    2    0    0 -9.3554636568e+01 -7.7024609045e+01 +8.0045404328e+02 1.0151826788e+03 6.1252260000e+02 0.0000e+00 1.0000e+00
  1000022  1    1    2    0    0 -5.9057263140e+01 +1.0541286833e+01 -4.5880532103e+02 7.6764909769e+02 6.1252260000e+02 0.0000e+00 1.0000e+00
       21  1    1    2  502  501 +1.5261189971e+02 +6.6483322212e+01 +6.8350278905e+00 1.6660474684e+02 0.0000000000e+00 0.0000e+00 -1.0000e+00
<mgrwt>
<rscale>  1 0.62024498E+03</rscale>
<asrwt>0</asrwt>
<pdfrwt beam="2">  1        3 0.12315021E+00 0.62024498E+03</pdfrwt>
<pdfrwt beam="1">  1       -3 0.17676310E+00 0.62024498E+03</pdfrwt>
<totfact> 0.28924392E-01</totfact>
</mgrwt>
</event>
<event>
 5      1 +1.8937969e-08 7.36507600e+02 7.81665300e-03 9.65675900e-02
       -1 -1    0    0    0  501 -0.0000000000e+00 +0.0000000000e+00 +3.6819565357e+02 3.6819565361e+02 5.0000000000e-03 0.0000e+00 1.0000e+00
        1 -1    0    0  502    0 +0.0000000000e+00 -0.0000000000e+00 -1.6040366458e+03 1.6040366458e+03 5.0000000000e-03 0.0000e+00 -1.0000e+00
  1000022  1    1    2    0    0 -1.4407383644e+02 +3.6810747332e+02 -4.6471193127e+02 8.6452385556e+02 6.1252260000e+02 0.0000e+00 -1.0000e+00
  1000022  1    1    2    0    0 +1.3272723988e+02 -4.0566953613e+02 -6.8563013164e+02 1.0136354895e+03 6.1252260000e+02 0.0000e+00 1.0000e+00
       21  1    1    2  502  501 +1.1346596569e+01 +3.7562062811e+01 -8.5498929340e+01 9.4072954320e+01 0.0000000000e+00 0.0000e+00 1.0000e+00
<mgrwt>
<rscale>  1 0.73650756E+03</rscale>
<asrwt>0</asrwt>
<pdfrwt beam="2">  1        1 0.24677486E+00 0.73650756E+03</pdfrwt>
<pdfrwt beam="1">  1       -1 0.56645486E-01 0.73650756E+03</pdfrwt>
<totfact> 0.18161931E+01</totfact>
</mgrwt>
</event>
<event>
 5      1 +1.8937969e-08 6.90588500e+02 7.81665300e-03 9.73346400e-02
        3 -1    0    0  502    0 +0.0000000000e+00 +0.0000000000e+00 +4.8524005896e+03 4.8524005905e+03 9.5000000000e-02 0.0000e+00 1.0000e+00
       -3 -1    0    0    0  501 -0.0000000000e+00 -0.0000000000e+00 -1.8705172045e+02 1.8705174458e+02 9.5000000000e-02 0.0000e+00 1.0000e+00
  1000022  1    1    2    0    0 +2.5429456151e+02 -2.5014634889e+02 +8.1814845293e+02 1.0824923771e+03 6.1252260000e+02 0.0000e+00 -1.0000e+00
  1000022  1    1    2    0    0 -2.9549698208e+02 +1.1094667068e+02 +3.6357603510e+03 3.7004817113e+03 6.1252260000e+02 0.0000e+00 -1.0000e+00
       21  1    1    2  502  501 +4.1202420569e+01 +1.3919967821e+02 +2.1144006521e+02 2.5647824674e+02 0.0000000000e+00 0.0000e+00 1.0000e+00
<mgrwt>
<rscale>  1 0.69058854E+03</rscale>
<asrwt>0</asrwt>
<pdfrwt beam="1">  1        3 0.74652318E+00 0.69058854E+03</pdfrwt>
<pdfrwt beam="2">  1       -3 0.28777189E-01 0.69058854E+03</pdfrwt>
<totfact> 0.57969701E-03</totfact>
</mgrwt>
</event>
<event>
 5      1 +1.8937969e-08 7.70330500e+02 7.81665300e-03 9.60398400e-02
       21 -1    0    0  501  502 +0.0000000000e+00 +0.0000000000e+00 +3.0997460251e+02 3.0997460251e+02 0.0000000000e+00 0.0000e+00 -1.0000e+00
        2 -1    0    0  502    0 -0.0000000000e+00 -0.0000000000e+00 -3.2997652658e+03 3.2997652658e+03 2.5000000000e-03 0.0000e+00 1.0000e+00
  1000022  1    1    2    0    0 +4.4752854672e+02 +1.3331339599e+02 -2.4709395984e+03 2.5882002813e+03 6.1252260000e+02 0.0000e+00 1.0000e+00
  1000022  1    1    2    0    0 -4.7523719807e+02 -3.4967135922e+01 -4.7832790285e+02 9.1162196835e+02 6.1252260000e+02 0.0000e+00 -1.0000e+00
        2  1    1    2  501    0 +2.7708651344e+01 -9.8346260069e+01 -4.0523162079e+01 1.0991761870e+02 2.5000000000e-03 0.0000e+00 1.0000e+00
<mgrwt>
<rscale>  1 0.77033054E+03</rscale>
<asrwt>0</asrwt>
<pdfrwt beam="1">  1       21 0.47688399E-01 0.77033054E+03</pdfrwt>
<pdfrwt beam="2">  1        2 0.50765621E+00 0.77033054E+03</pdfrwt>
<totfact> 0.56659127E+01</totfact>
</mgrwt>
</event>
<event>
 5      1 +1.8937969e-08 8.49654900e+02 7.81665300e-03 9.49080000e-02
        3 -1    0    0  502    0 +0.0000000000e+00 +0.0000000000e+00 +9.7804537044e+02 9.7804537505e+02 9.5000000000e-02 0.0000e+00 1.0000e+00
       -3 -1    0    0    0  501 -0.0000000000e+00 -0.0000000000e+00 -9.0126212761e+02 9.0126213262e+02 9.5000000000e-02 0.0000e+00 1.0000e+00
  1000022  1    1    2    0    0 +5.5431393558e+02 -1.6687127274e+02 +5.6049373174e+01 8.4465106913e+02 6.1252260000e+02 0.0000e+00 -1.0000e+00
  1000022  1    1    2    0    0 -5.6690990407e+02 +1.8948097971e+02 +1.7893508929e+02 8.7435209309e+02 6.1252260000e+02 0.0000e+00 -1.0000e+00
       21  1    1    2  502  501 +1.2595968495e+01 -2.2609706969e+01 -1.5820121965e+02 1.6030434545e+02 0.0000000000e+00 0.0000e+00 1.0000e+00
<mgrwt>
<rscale>  1 0.84965488E+03</rscale>
<asrwt>0</asrwt>
<pdfrwt beam="1">  1        3 0.15046852E+00 0.84965488E+03</pdfrwt>
<pdfrwt beam="2">  1       -3 0.13865571E+00 0.84965488E+03</pdfrwt>
<totfact> 0.32542127E-01</totfact>
</mgrwt>
</event>
<event>
 5      1 +1.8937969e-08 8.64294200e+02 7.81665300e-03 9.47135000e-02
       21 -1    0    0  501  502 +0.0000000000e+00 +0.0000000000e+00 +9.7385843392e+02 9.7385843392e+02 0.0000000000e+00 0.0000e+00 1.0000e+00
        3 -1    0    0  502    0 -0.0000000000e+00 -0.0000000000e+00 -1.0291163026e+03 1.0291163070e+03 9.5000000000e-02 0.0000e+00 -1.0000e+00
  1000022  1    1    2    0    0 -5.0198071989e+02 +3.0614158491e+02 -2.8959556905e+02 8.9708240551e+02 6.1252260000e+02 0.0000e+00 1.0000e+00
  1000022  1    1    2    0    0 +5.5967025663e+02 -3.1605025209e+02 +2.4669441093e+01 8.8820666223e+02 6.1252260000e+02 0.0000e+00 1.0000e+00
        3  1    1    2  501    0 -5.7689536741e+01 +9.9086671738e+00 +2.0966825927e+02 2.1768567317e+02 9.5000000000e-02 0.0000e+00 1.0000e+00
<mgrwt>
<rscale>  1 0.86429425E+03</rscale>
<asrwt>0</asrwt>
<pdfrwt beam="1">  1       21 0.14982437E+00 0.86429425E+03</pdfrwt>
<pdfrwt beam="2">  1        3 0.15832559E+00 0.86429425E+03</pdfrwt>
<totfact> 0.34972306E+00</totfact>
</mgrwt>
</event>
<event>
 5      1 +1.8937969e-08 6.88019000e+02 7.81665300e-03 9.73794400e-02
       -2 -1    0    0    0  501 -0.0000000000e+00 +0.0000000000e+00 +5.2996346605e+02 5.2996346606e+02 2.5000000000e-03 0.0000e+00 1.0000e+00
        2 -1    0    0  502    0 +0.0000000000e+00 -0.0000000000e+00 -1.3209370613e+03 1.3209370613e+03 2.5000000000e-03 0.0000e+00 -1.0000e+00
  1000022  1    1    2    0    0 -1.3344050851e+02 +2.7371761406e+02 -1.8134731090e+02 7.0767116957e+02 6.1252260000e+02 0.0000e+00 -1.0000e+00
  1000022  1    1    2    0    0 -8.1307827286e+01 -3.5863325300e+02 -3.4933690922e+02 7.9526661227e+02 6.1252260000e+02 0.0000e+00 1.0000e+00
       21  1    1    2  502  501 +2.1474833579e+02 +8.4915638945e+01 -2.6028937510e+02 3.4796274550e+02 0.0000000000e+00 0.0000e+00 -1.0000e+00
<mgrwt>
<rscale>  1 0.68801898E+03</rscale>
<asrwt>0</asrwt>
<pdfrwt beam="2">  1        2 0.20322109E+00 0.68801898E+03</pdfrwt>
<pdfrwt beam="1">  1       -2 0.81532841E-01 0.68801898E+03</pdfrwt>
<totfact> 0.21892808E+01</totfact>
</mgrwt>
</event>
<event>
 5      1 +1.8937969e-08 6.80109700e+02 7.81665300e-03 9.75186500e-02
       -3 -1    0    0    0  501 -0.0000000000e+00 +0.0000000000e+00 +1.9660741029e+03 1.9660741051e+03 9.5000000000e-02 0.0000e+00 1.0000e+00
        3 -1    0    0  502    0 +0.0000000000e+00 -0.0000000000e+00 -4.2332804481e+02 4.2332805547e+02 9.5000000000e-02 0.0000e+00 1.0000e+00
  1000022  1    1    2    0    0 +2.0128347165e+02 +1.3838942189e+02 +2.8315688676e+01 6.6003968198e+02 6.1252260000e+02 0.0000e+00 -1.0000e+00
  1000022  1    1    2    0    0 -2.3813008284e+02 -1.9496732237e+02 +1.5138745247e+03 1.6618418111e+03 6.1252260000e+02 0.0000e+00 -1.0000e+00
       21  1    1    2  502  501 +3.6846611188e+01 +5.6577900479e+01 +5.5584466849e-01 6.7520667517e+01 0.0000000000e+00 0.0000e+00 -1.0000e+00
<mgrwt>
<rscale>  1 0.68010970E+03</rscale>
<asrwt>0</asrwt>
<pdfrwt beam="2">  1        3 0.65127392E-01 0.68010970E+03</pdfrwt>
<pdfrwt beam="1">  1       -3 0.30247294E+00 0.68010970E+03</pdfrwt>
<totfact> 0.22419721E-01</totfact>
</mgrwt>
</event>
<event>
 5      1 +1.8937969e-08 6.52354400e+02 7.81665300e-03 9.80237100e-02
        2 -1    0    0  502    0 +0.0000000000e+00 +0.0000000000e+00 +3.3759034881e+03 3.3759034881e+03 2.5000000000e-03 0.0000e+00 1.0000e+00
       -2 -1    0    0    0  501 -0.0000000000e+00 -0.0000000000e+00 -2.0252727572e+02 2.0252727574e+02 2.5000000000e-03 0.0000e+00 -1.0000e+00
  1000022  1    1    2    0    0 -2.0924433574e+02 +1.1700819154e+01 +7.6800630104e+02 1.0044589166e+03 6.1252260000e+02 0.0000e+00 -1.0000e+00
  1000022  1    1    2    0    0 +2.2999477833e+02 +6.5223835606e+00 +2.4419764986e+03 2.5281165508e+03 6.1252260000e+02 0.0000e+00 1.0000e+00
       21  1    1    2  502  501 -2.0750442591e+01 -1.8223202715e+01 -3.6606587192e+01 4.5855296431e+01 0.0000000000e+00 0.0000e+00 -1.0000e+00
<mgrwt>
<rscale>  1 0.65235438E+03</rscale>
<asrwt>0</asrwt>
<pdfrwt beam="1">  1        2 0.51936977E+00 0.65235438E+03</pdfrwt>
<pdfrwt beam="2">  1       -2 0.31158042E-01 0.65235438E+03</pdfrwt>
<totfact> 0.10371177E+01</totfact>
</mgrwt>
</event>
<event>
 5      1 +1.8937969e-08 8.26369000e+02 7.81665300e-03 9.52261400e-02
       -3 -1    0    0    0  501 -0.0000000000e+00 +0.0000000000e+00 +3.4297966250e+02 3.4297967566e+02 9.5000000000e-02 0.0000e+00 -1.0000e+00
        3 -1    0    0  502    0 +0.0000000000e+00 -0.0000000000e+00 -2.6154350931e+03 2.6154350948e+03 9.5000000000e-02 0.0000e+00 -1.0000e+00
  1000022  1    1    2    0    0 +5.5064064307e+02 +1.6667558462e+02 -5.2429082627e+02 9.9048002218e+02 6.1252260000e+02 0.0000e+00 1.0000e+00
  1000022  1    1    2    0    0 -5.0887568598e+02 -8.1174721191e+01 -1.4679809893e+03 1.6720334684e+03 6.1252260000e+02 0.0000e+00 1.0000e+00
       21  1    1    2  502  501 -4.1764957089e+01 -8.5500863431e+01 -2.8018361503e+02 2.9590127985e+02 0.0000000000e+00 0.0000e+00 1.0000e+00
<mgrwt>
<rscale>  1 0.82636904E+03</rscale>
<asrwt>0</asrwt>
<pdfrwt beam="2">  1        3 0.40237462E+00 0.82636904E+03</pdfrwt>
<pdfrwt beam="1">  1       -3 0.52766105E-01 0.82636904E+03</pdfrwt>
<totfact> 0.10241085E-01</totfact>
</mgrwt>
</event>
<event>
 5      1 +1.8937969e-08 6.94045800e+02 7.81665300e-03 9.72746900e-02
       -1 -1    0    0    0  501 -0.0000000000e+00 +0.0000000000e+00 +4.5598133137e+02 4.5598133140e+02 5.0000000000e-03 0.0000e+00 1.0000e+00
        1 -1    0    0  502    0 +0.0000000000e+00 -0.0000000000e+00 -1.1894354218e+03 1.1894354219e+03 5.0000000000e-03 0.0000e+00 -1.0000e+00
  1000022  1    1    2    0    0 +2.1591193823e+02 +2.5754229014e+02 -1.4692051287e+02 7.1394367347e+02 6.1252260000e+02 0.0000e+00 1.0000e+00
  1000022  1    1    2    0    0 -1.8912109018e+02 -2.5954257040e+02 -5.8266740809e+02 9.0433089993e+02 6.1252260000e+02 0.0000e+00 -1.0000e+00
       21  1    1    2  502  501 -2.6790848053e+01 +2.0002802613e+00 -3.8661695131e+00 2.7142179854e+01 0.0000000000e+00 0.0000e+00 -1.0000e+00
<mgrwt>
<rscale>  1 0.69404585E+03</rscale>
<asrwt>0</asrwt>
<pdfrwt beam="2">  1        1 0.18299006E+00 0.69404585E+03</pdfrwt>
<pdfrwt beam="1">  1       -1 0.70150974E-01 0.69404585E+03</pdfrwt>
<totfact> 0.23184583E+01</totfact>
</mgrwt>
</event>
<event>
 5      1 +1.8937969e-08 8.42439100e+02 7.81665300e-03 9.50054200e-02
       -3 -1    0    0    0  501 -0.0000000000e+00 +0.0000000000e+00 +1.2336867457e+03 1.2336867494e+03 9.5000000000e-02 0.0000e+00 1.0000e+00
        3 -1    0    0  502    0 +0.0000000000e+00 -0.0000000000e+00 -6.9521681731e+02 6.9521682380e+02 9.5000000000e-02 0.0000e+00 1.0000e+00
  1000022  1    1    2    0    0 +3.3155092199e+02 -4.5438459324e+02 +2.7846425532e+02 8.7699352874e+02 6.1252260000e+02 0.0000e+00 -1.0000e+00
  1000022  1    1    2    0    0 -3.2474569592e+02 +4.9418580787e+02 +6.6217988535e+01 8.5396026678e+02 6.1252260000e+02 0.0000e+00 -1.0000e+00
       21  1    1    2  502  501 -6.8052260702e+00 -3.9801214632e+01 +1.9378768453e+02 1.9794977763e+02 0.0000000000e+00 0.0000e+00 1.0000e+00
<mgrwt>
<rscale>  1 0.84243907E+03</rscale>
<asrwt>0</asrwt>
<pdfrwt beam="2">  1        3 0.10695644E+00 0.84243907E+03</pdfrwt>
<pdfrwt beam="1">  1       -3 0.18979796E+00 0.84243907E+03</pdfrwt>
<totfact> 0.32768389E-01</totfact>
</mgrwt>
</event>
<event>
 5      1 +1.8937969e-08 6.19498300e+02 7.81665300e-03 9.86575900e-02
        1 -1    0    0  502    0 +0.0000000000e+00 +0.0000000000e+00 +3.0177995632e+03 3.0177995632e+03 5.0000000000e-03 0.0000e+00 -1.0000e+00
       -1 -1    0    0    0  501 -0.0000000000e+00 -0.0000000000e+00 -3.6413996101e+02 3.6413996104e+02 5.0000000000e-03 0.0000e+00 1.0000e+00
  1000022  1    1    2    0    0 +4.6295654480e+00 -9.4160250687e+01 +2.6478826762e+03 2.7194400505e+03 6.1252260000e+02 0.0000e+00 -1.0000e+00
  1000022  1    1    2    0    0 +2.6990198256e+01 +8.0689295151e+01 +3.2056609336e+01 6.1923403885e+02 6.1252260000e+02 0.0000e+00 1.0000e+00
       21  1    1    2  502  501 -3.1619763704e+01 +1.3470955536e+01 -2.6279683368e+01 4.3265434907e+01 0.0000000000e+00 0.0000e+00 -1.0000e+00
<mgrwt>
<rscale>  1 0.61949825E+03</rscale>
<asrwt>0</asrwt>
<pdfrwt beam="1">  1        1 0.46427687E+00 0.61949825E+03</pdfrwt>
<pdfrwt beam="2">  1       -1 0.56021531E-01 0.61949825E+03</pdfrwt>
<totfact> 0.20714301E+00</totfact>
</mgrwt>
</event>
<event>
 5      1 +1.8937969e-08 7.44861800e+02 7.81665300e-03 9.64344600e-02
        2 -1    0    0  502    0 +0.0000000000e+00 +0.0000000000e+00 +2.3180506511e+03 2.3180506511e+03 2.5000000000e-03 0.0000e+00 1.0000e+00
       -2 -1    0    0    0  501 -0.0000000000e+00 -0.0000000000e+00 -2.6551413579e+02 2.6551413581e+02 2.5000000000e-03 0.0000e+00 -1.0000e+00
  1000022  1    1    2    0    0 +2.5791005668e+01 +4.3195960540e+02 +1.3386212501e+03 1.5343875206e+03 6.1252260000e+02 0.0000e+00 1.0000e+00
  1000022  1    1    2    0    0 -3.6362899894e+00 -4.1880623137e+02 +6.7913118940e+02 1.0058901481e+03 6.1252260000e+02 0.0000e+00 -1.0000e+00
       21  1    1    2  502  501 -2.2154715678e+01 -1.3153374032e+01 +3.4784075780e+01 4.3287118212e+01 0.0000000000e+00 0.0000e+00 -1.0000e+00
<mgrwt>
<rscale>  1 0.74486177E+03</rscale>
<asrwt>0</asrwt>
<pdfrwt beam="1">  1        2 0.35662317E+00 0.74486177E+03</pdfrwt>
<pdfrwt beam="2">  1       -2 0.40848329E-01 0.74486177E+03</pdfrwt>
<totfact> 0.26154052E+01</totfact>
</mgrwt>
</event>
<event>
 5      1 +1.8937969e-08 8.51469700e+02 7.81665300e-03 9.48836700e-02
       -3 -1    0    0    0  501 -0.0000000000e+00 +0.0000000000e+00 +1.9569383108e+03 1.9569383131e+03 9.5000000000e-02 0.0000e+00 -1.0000e+00
       21 -1    0    0  501  502 +0.0000000000e+00 -0.0000000000e+00 -5.5010945654e+02 5.5010945654e+02 0.0000000000e+00 0.0000e+00 -1.0000e+00
  1000022  1    1    2    0    0 -6.7762340930e+02 +2.0404042964e+01 +9.0639362616e+02 1.2869821875e+03 6.1252260000e+02 0.0000e+00 1.0000e+00
  1000022  1    1    2    0    0 +4.3987779215e+02 -1.1119954540e+02 +1.3403800757e+02 7.7395602841e+02 6.1252260000e+02 0.0000e+00 1.0000e+00
       -3  1    1    2    0  502 +2.3774561714e+02 +9.0795502432e+01 +3.6639722055e+02 4.4610955379e+02 9.5000000000e-02 0.0000e+00 1.0000e+00
<mgrwt>
<rscale>  1 0.85146968E+03</rscale>
<asrwt>0</asrwt>
<pdfrwt beam="2">  1       21 0.84632225E-01 0.85146968E+03</pdfrwt>
<pdfrwt beam="1">  1       -3 0.30106743E+00 0.85146968E+03</pdfrwt>
<totfact> 0.20268572E+00</totfact>
</mgrwt>
</event>
<event>
 5      1 +1.8937969e-08 8.55663900e+02 7.81665300e-03 9.48276600e-02
        3 -1    0    0  502    0 +0.0000000000e+00 +0.0000000000e+00 +1.0979496893e+03 1.0979496934e+03 9.5000000000e-02 0.0000e+00 1.0000e+00
       -3 -1    0    0    0  501 -0.0000000000e+00 -0.0000000000e+00 -7.6795930090e+02 7.6795930677e+02 9.5000000000e-02 0.0000e+00 1.0000e+00
  1000022  1    1    2    0    0 +5.5229237558e+02 -2.9784553330e+02 +3.6707148730e+02 9.5061256152e+02 6.1252260000e+02 0.0000e+00 -1.0000e+00
  1000022  1    1    2    0    0 -4.6452154172e+02 +3.0135552591e+02 -4.6153348204e+01 8.2698819990e+02 6.1252260000e+02 0.0000e+00 -1.0000e+00
       21  1    1    2  502  501 -8.7770833858e+01 -3.5099926112e+00 +9.0722493023e+00 8.8308238753e+01 0.0000000000e+00 0.0000e+00 1.0000e+00
<mgrwt>
<rscale>  1 0.85566390E+03</rscale>
<asrwt>0</asrwt>
<pdfrwt beam="1">  1        3 0.16891534E+00 0.85566390E+03</pdfrwt>
<pdfrwt beam="2">  1       -3 0.11814759E+00 0.85566390E+03</pdfrwt>
<totfact> 0.35685989E-01</totfact>
</mgrwt>
</event>
<event>
 5      1 +1.8937969e-08 8.68198000e+02 7.81665300e-03 9.46623300e-02
        3 -1    0    0  502    0 +0.0000000000e+00 +0.0000000000e+00 +1.2080610448e+03 1.2080610485e+03 9.5000000000e-02 0.0000e+00 1.0000e+00
       -3 -1    0    0    0  501 -0.0000000000e+00 -0.0000000000e+00 -6.6279464174e+02 6.6279464855e+02 9.5000000000e-02 0.0000e+00 1.0000e+00
  1000022  1    1    2    0    0 +5.9706110120e+02 -9.6483097113e+01 +1.3805967710e+02 8.7180006685e+02 6.1252260000e+02 0.0000e+00 -1.0000e+00
  1000022  1    1    2    0    0 -6.1921521770e+02 +7.2643605769e+01 +4.1184854703e+02 9.6618204314e+02 6.1252260000e+02 0.0000e+00 -1.0000e+00
       21  1    1    2  502  501 +2.2154116498e+01 +2.3839491344e+01 -4.6418210750e+00 3.2873587091e+01 0.0000000000e+00 0.0000e+00 -1.0000e+00
<mgrwt>
<rscale>  1 0.86819802E+03</rscale>
<asrwt>0</asrwt>
<pdfrwt beam="1">  1        3 0.18585554E+00 0.86819802E+03</pdfrwt>
<pdfrwt beam="2">  1       -3 0.10196841E+00 0.86819802E+03</pdfrwt>
<totfact> 0.39039092E-01</totfact>
</mgrwt>
</event>
<event>
 5      1 +1.8937969e-08 7.78612600e+02 7.81665300e-03 9.59150100e-02
       -3 -1    0    0    0  501 -0.0000000000e+00 +0.0000000000e+00 +8.6210794424e+02 8.6210794947e+02 9.5000000000e-02 0.0000e+00 1.0000e+00
       21 -1    0    0  501  502 +0.0000000000e+00 -0.0000000000e+00 -1.2955192919e+03 1.2955192919e+03 0.0000000000e+00 0.0000e+00 1.0000e+00
  1000022  1    1    2    0    0 -3.3919262173e+02 +2.7629800715e+02 -5.0033914797e+02 9.0383373576e+02 6.1252260000e+02 0.0000e+00 -1.0000e+00
  1000022  1    1    2    0    0 +1.9524521218e+02 -4.7274333391e+02 +3.5770877683e+02 8.7449783143e+02 6.1252260000e+02 0.0000e+00 -1.0000e+00
       -3  1    1    2    0  502 +1.4394740955e+02 +1.9644532676e+02 -2.9078097653e+02 3.7929567419e+02 9.5000000000e-02 0.0000e+00 -1.0000e+00
<mgrwt>
<rscale>  1 0.77861261E+03</rscale>
<asrwt>0</asrwt>
<pdfrwt beam="2">  1       21 0.19931066E+00 0.77861261E+03</pdfrwt>
<pdfrwt beam="1">  1       -3 0.13263199E+00 0.77861261E+03</pdfrwt>
<totfact> 0.24178067E+00</totfact>
</mgrwt>
</event>
<event>
 5      1 +1.8937969e-08 7.18568600e+02 7.81665300e-03 9.68599400e-02
        3 -1    0    0  502    0 +0.0000000000e+00 +0.0000000000e+00 +5.2744269758e+02 5.2744270613e+02 9.5000000000e-02 0.0000e+00 -1.0000e+00
       -3 -1    0    0    0  501 -0.0000000000e+00 -0.0000000000e+00 -1.5893029098e+03 1.5893029126e+03 9.5000000000e-02 0.0000e+00 -1.0000e+00
  1000022  1    1    2    0    0 +3.0079072569e+02 -2.1289861245e+02 -1.1234868880e+03 1.3316184149e+03 6.1252260000e+02 0.0000e+00 1.0000e+00
  1000022  1    1    2    0    0 -3.2837309568e+02 +2.3152490248e+02 +2.1314745835e+01 7.3285122933e+02 6.1252260000e+02 0.0000e+00 1.0000e+00
       21  1    1    2  502  501 +2.7582369994e+01 -1.8626290033e+01 +4.0311929970e+01 5.2275974527e+01 0.0000000000e+00 0.0000e+00 1.0000e+00
<mgrwt>
<rscale>  1 0.71856861E+03</rscale>
<asrwt>0</asrwt>
<pdfrwt beam="1">  1        3 0.81145032E-01 0.71856861E+03</pdfrwt>
<pdfrwt beam="2">  1       -3 0.24450814E+00 0.71856861E+03</pdfrwt>
<totfact> 0.29131463E-01</totfact>
</mgrwt>
</event>
<event>
 5      1 +1.8937969e-08 7.47971100e+02 7.81665300e-03 9.63853900e-02
        2 -1    0    0  502    0 +0.0000000000e+00 +0.0000000000e+00 +1.4623671172e+03 1.4623671172e+03 2.5000000000e-03 0.0000e+00 -1.0000e+00
       -2 -1    0    0    0  501 -0.0000000000e+00 -0.0000000000e+00 -7.3394915201e+02 7.3394915201e+02 2.5000000000e-03 0.0000e+00 1.0000e+00
  1000022  1    1    2    0    0 +1.3791463630e+01 +3.6300986840e+02 -2.2447020337e+02 7.4668412112e+02 6.1252260000e+02 0.0000e+00 1.0000e+00
  1000022  1    1    2    0    0 +4.5147058358e+01 -4.4424575478e+02 +1.0598092501e+03 1.3029858516e+03 6.1252260000e+02 0.0000e+00 -1.0000e+00
       21  1    1    2  502  501 -5.8938521987e+01 +8.1235886384e+01 -1.0692108147e+02 1.4664629649e+02 0.0000000000e+00 0.0000e+00 1.0000e+00
<mgrwt>
<rscale>  1 0.74797111E+03</rscale>
<asrwt>0</asrwt>
<pdfrwt beam="1">  1        2 0.22497956E+00 0.74797111E+03</pdfrwt>
<pdfrwt beam="2">  1       -2 0.11291525E+00 0.74797111E+03</pdfrwt>
<totfact> 0.84214877E+00</totfact>
</mgrwt>
</event>
<event>
 5      1 +1.8937969e-08 7.06975600e+02 7.81665300e-03 9.70537700e-02
       -2 -1    0    0    0  501 -0.0000000000e+00 +0.0000000000e+00 +9.4393128350e+02 9.4393128350e+02 2.5000000000e-03 0.0000e+00 1.0000e+00
        2 -1    0    0  502    0 +0.0000000000e+00 -0.0000000000e+00 -6.7690675527e+02 6.7690675527e+02 2.5000000000e-03 0.0000e+00 -1.0000e+00
  1000022  1    1    2    0    0 +2.8258840691e+02 +2.3389685415e+02 -1.9702616088e+02 7.4065321824e+02 6.1252260000e+02 0.0000e+00 -1.0000e+00
  1000022  1    1    2    0    0 -2.5664785851e+02 -2.3451789794e+02 +4.7754214737e+02 8.5093901412e+02 6.1252260000e+02 0.0000e+00 1.0000e+00
       21  1    1    2  502  501 -2.5940548405e+01 +6.2104378366e-01 -1.3491458251e+01 2.9245806412e+01 0.0000000000e+00 0.0000e+00 -1.0000e+00
<mgrwt>
<rscale>  1 0.70697563E+03</rscale>
<asrwt>0</asrwt>
<pdfrwt beam="2">  1        2 0.10413950E+00 0.70697563E+03</pdfrwt>
<pdfrwt beam="1">  1       -2 0.14522020E+00 0.70697563E+03</pdfrwt>
<totfact> 0.14219553E+01</totfact>
</mgrwt>
</event>
<event>
 5      1 +1.8937969e-08 6.66852900e+02 7.81665300e-03 9.77566000e-02
       21 -1    0    0  501  502 +0.0000000000e+00 +0.0000000000e+00 +6.1663928193e+02 6.1663928193e+02 0.0000000000e+00 0.0000e+00 1.0000e+00
        3 -1    0    0  502    0 -0.0000000000e+00 -0.0000000000e+00 -1.6921331443e+03 1.6921331470e+03 9.5000000000e-02 0.0000e+00 1.0000e+00
  1000022  1    1    2    0    0 +2.3471190880e+02 -4.3112526140e+01 -1.2229181665e+03 1.3884023723e+03 6.1252260000e+02 0.0000e+00 -1.0000e+00
  1000022  1    1    2    0    0 -3.5568501082e+02 +1.2701465895e+02 +1.1045001712e+01 7.1968776430e+02 6.1252260000e+02 0.0000e+00 -1.0000e+00
        3  1    1    2  501    0 +1.2097310203e+02 -8.3902132806e+01 +1.3637930237e+02 2.0068229230e+02 9.5000000000e-02 0.0000e+00 -1.0000e+00
<mgrwt>
<rscale>  1 0.66685291E+03</rscale>
<asrwt>0</asrwt>
<pdfrwt beam="1">  1       21 0.94867583E-01 0.66685291E+03</pdfrwt>
<pdfrwt beam="2">  1        3 0.26032817E+00 0.66685291E+03</pdfrwt>
<totfact> 0.27449685E+00</totfact>
</mgrwt>
</event>
<event>
 5      1 +1.8937969e-08 8.09517100e+02 7.81665300e-03 9.54634300e-02
       -2 -1    0    0    0  501 -0.0000000000e+00 +0.0000000000e+00 +2.2920116504e+02 2.2920116506e+02 2.5000000000e-03 0.0000e+00 1.0000e+00
        2 -1    0    0  502    0 +0.0000000000e+00 -0.0000000000e+00 -3.3858279500e+03 3.3858279500e+03 2.5000000000e-03 0.0000e+00 -1.0000e+00
  1000022  1    1    2    0    0 -1.3550194298e+02 +5.0733371135e+02 -9.2251086589e+02 1.2255441667e+03 6.1252260000e+02 0.0000e+00 1.0000e+00
  1000022  1    1    2    0    0 +1.1065530330e+02 -5.2697388459e+02 -2.1625903731e+03 2.3112609391e+03 6.1252260000e+02 0.0000e+00 -1.0000e+00
       21  1    1    2  502  501 +2.4846639684e+01 +1.9640173247e+01 -7.1525545964e+01 7.8224009321e+01 0.0000000000e+00 0.0000e+00 -1.0000e+00
<mgrwt>
<rscale>  1 0.80951710E+03</rscale>
<asrwt>0</asrwt>
<pdfrwt beam="2">  1        2 0.52089657E+00 0.80951710E+03</pdfrwt>
<pdfrwt beam="1">  1       -2 0.35261720E-01 0.80951710E+03</pdfrwt>
<totfact> 0.78423182E+00</totfact>
</mgrwt>
</event>
<event>
 5      1 +1.8937969e-08 9.01712000e+02 7.81665300e-03 9.42344400e-02
        2 -1    0    0  502    0 +0.0000000000e+00 +0.0000000000e+00 +1.3482391099e+03 1.3482391099e+03 2.5000000000e-03 0.0000e+00 -1.0000e+00
       -2 -1    0    0    0  501 -0.0000000000e+00 -0.0000000000e+00 -1.1849544245e+03 1.1849544245e+03 2.5000000000e-03 0.0000e+00 1.0000e+00
  1000022  1    1    2    0    0 +1.5130190338e+02 +6.5746829205e+02 +1.8999780961e+02 9.3082754804e+02 6.1252260000e+02 0.0000e+00 1.0000e+00
  1000022  1    1    2    0    0 -1.1100665100e+02 -6.4377680222e+02 +5.3227263908e+02 1.0417625187e+03 6.1252260000e+02 0.0000e+00 -1.0000e+00
       21  1    1    2  502  501 -4.0295252378e+01 -1.3691489831e+01 -5.5898576329e+02 5.6060346754e+02 0.0000000000e+00 0.0000e+00 -1.0000e+00
<mgrwt>
<rscale>  1 0.90171201E+03</rscale>
<asrwt>0</asrwt>
<pdfrwt beam="1">  1        2 0.20742140E+00 0.90171201E+03</pdfrwt>
<pdfrwt beam="2">  1       -2 0.18230068E+00 0.90171201E+03</pdfrwt>
<totfact> 0.27213916E+00</totfact>
</mgrwt>
</event>
<event>
 5      1 +1.8937969e-08 8.17221500e+02 7.81665300e-03 9.53541900e-02
       -3 -1    0    0    0  501 -0.0000000000e+00 +0.0000000000e+00 +3.9317425338e+02 3.9317426485e+02 9.5000000000e-02 0.0000e+00 -1.0000e+00
        3 -1    0    0  502    0 +0.0000000000e+00 -0.0000000000e+00 -2.0021634762e+03 2.0021634784e+03 9.5000000000e-02 0.0000e+00 -1.0000e+00
  1000022  1    1    2    0    0 -5.2150512118e+02 +1.8580233432e+02 -3.9026938926e+02 9.1322737068e+02 6.1252260000e+02 0.0000e+00 1.0000e+00
  1000022  1    1    2    0    0 +4.7999766665e+02 -1.9079845950e+02 -1.1480813585e+03 1.4000273402e+03 6.1252260000e+02 0.0000e+00 1.0000e+00
       21  1    1    2  502  501 +4.1507454527e+01 +4.9961251809e+00 -7.0638475040e+01 8.2083032376e+01 0.0000000000e+00 0.0000e+00 1.0000e+00
<mgrwt>
<rscale>  1 0.81722152E+03</rscale>
<asrwt>0</asrwt>
<pdfrwt beam="2">  1        3 0.30802515E+00 0.81722152E+03</pdfrwt>
<pdfrwt beam="1">  1       -3 0.60488349E-01 0.81722152E+03</pdfrwt>
<totfact> 0.24580993E-01</totfact>
</mgrwt>
</event>
<event>
 5      1 +1.8937969e-08 8.29388100e+02 7.81665300e-03 9.51842700e-02
       -3 -1    0    0    0  501 -0.0000000000e+00 +0.0000000000e+00 +2.6348907554e+03 2.6348907571e+03 9.5000000000e-02 0.0000e+00 -1.0000e+00
        3 -1    0    0  502    0 +0.0000000000e+00 -0.0000000000e+00 -3.7830130840e+02 3.7830132033e+02 9.5000000000e-02 0.0000e+00 -1.0000e+00
  1000022  1    1    2    0    0 +5.4943349913e+02 -3.6244391249e+02 +1.3995190226e+03 1.6634542945e+03 6.1252260000e+02 0.0000e+00 1.0000e+00
  1000022  1    1    2    0    0 -4.8765824720e+02 +1.7345470102e+02 +5.1184755695e+02 9.5135112153e+02 6.1252260000e+02 0.0000e+00 1.0000e+00
       21  1    1    2  502  501 -6.1775251932e+01 +1.8898921147e+02 +3.4522286746e+02 3.9838666145e+02 0.0000000000e+00 0.0000e+00 -1.0000e+00
<mgrwt>
<rscale>  1 0.82938807E+03</rscale>
<asrwt>0</asrwt>
<pdfrwt beam="2">  1        3 0.58200204E-01 0.82938807E+03</pdfrwt>
<pdfrwt beam="1">  1       -3 0.40536780E+00 0.82938807E+03</pdfrwt>
<totfact> 0.76399305E-02</totfact>
</mgrwt>
</event>
<event>
 5      1 +1.8937969e-08 7.80484200e+02 7.81665300e-03 9.58870300e-02
       -3 -1    0    0    0  501 -0.0000000000e+00 +0.0000000000e+00 +7.5290317162e+02 7.5290317762e+02 9.5000000000e-02 0.0000e+00 -1.0000e+00
        3 -1    0    0  502    0 +0.0000000000e+00 -0.0000000000e+00 -1.1406842700e+03 1.1406842740e+03 9.5000000000e-02 0.0000e+00 -1.0000e+00
  1000022  1    1    2    0    0 -5.1175557918e+02 -5.2975499654e+00 -5.6705319338e+02 9.7910933837e+02 6.1252260000e+02 0.0000e+00 1.0000e+00
  1000022  1    1    2    0    0 +4.7109257160e+02 +5.4756244114e+01 +2.5476893656e+02 8.1548611505e+02 6.1252260000e+02 0.0000e+00 1.0000e+00
       21  1    1    2  502  501 +4.0663007585e+01 -4.9458694149e+01 -7.5496841576e+01 9.8991998165e+01 0.0000000000e+00 0.0000e+00 1.0000e+00
<mgrwt>
<rscale>  1 0.78048415E+03</rscale>
<asrwt>0</asrwt>
<pdfrwt beam="2">  1        3 0.17548989E+00 0.78048415E+03</pdfrwt>
<pdfrwt beam="1">  1       -3 0.11583126E+00 0.78048415E+03</pdfrwt>
<totfact> 0.33915923E-01</totfact>
</mgrwt>
</event>
<event>
 5      1 +1.8937969e-08 1.23564800e+03 7.81665300e-03 9.08221300e-02
        1 -1    0    0  502    0 +0.0000000000e+00 +0.0000000000e+00 +1.7687737195e+03 1.7687737195e+03 5.0000000000e-03 0.0000e+00 -1.0000e+00
       -1 -1    0    0    0  501 -0.0000000000e+00 -0.0000000000e+00 -1.0546290215e+03 1.0546290215e+03 5.0000000000e-03 0.0000e+00 1.0000e+00
  1000022  1    1    2    0    0 +2.4319626193e+02 -1.0340429115e+03 -1.5094366296e+02 1.2354582509e+03 6.1252260000e+02 0.0000e+00 -1.0000e+00
  1000022  1    1    2    0    0 -3.1178497553e+02 +1.0528020376e+03 +8.4196080818e+02 1.5131701621e+03 6.1252260000e+02 0.0000e+00 1.0000e+00
       21  1    1    2  502  501 +6.8588713594e+01 -1.8759126091e+01 +2.3127552726e+01 7.4774328076e+01 0.0000000000e+00 0.0000e+00 1.0000e+00
<mgrwt>
<rscale>  1 0.12356482E+04</rscale>
<asrwt>0</asrwt>
<pdfrwt beam="1">  1        1 0.27211903E+00 0.12356482E+04</pdfrwt>
<pdfrwt beam="2">  1       -1 0.16225062E+00 0.12356482E+04</pdfrwt>
<totfact> 0.11745056E+00</totfact>
</mgrwt>
</event>
<event>
 5      1 +1.8937969e-08 6.31307100e+02 7.81665300e-03 9.84250100e-02
        2 -1    0    0  502    0 +0.0000000000e+00 +0.0000000000e+00 +1.2360644973e+03 1.2360644973e+03 2.5000000000e-03 0.0000e+00 -1.0000e+00
       -2 -1    0    0    0  501 -0.0000000000e+00 -0.0000000000e+00 -9.4264666280e+02 9.4264666280e+02 2.5000000000e-03 0.0000e+00 1.0000e+00
  1000022  1    1    2    0    0 +2.9914692423e+01 +8.2255775240e+01 +7.8421668788e+02 9.9891974175e+02 6.1252260000e+02 0.0000e+00 -1.0000e+00
  1000022  1    1    2    0    0 +1.6986398710e+02 +7.2658192164e+01 -6.2429733746e+02 8.9390384722e+02 6.1252260000e+02 0.0000e+00 1.0000e+00
       21  1    1    2  502  501 -1.9977867952e+02 -1.5491396740e+02 +1.3349848408e+02 2.8588757115e+02 0.0000000000e+00 0.0000e+00 1.0000e+00
<mgrwt>
<rscale>  1 0.63130709E+03</rscale>
<asrwt>0</asrwt>
<pdfrwt beam="1">  1        2 0.19016377E+00 0.63130709E+03</pdfrwt>
<pdfrwt beam="2">  1       -2 0.14502256E+00 0.63130709E+03</pdfrwt>
<totfact> 0.61411615E+00</totfact>
</mgrwt>
</event>
<event>
 5      1 +1.8937969e-08 7.21923300e+02 7.81665300e-03 9.68045800e-02
        1 -1    0    0  502    0 +0.0000000000e+00 +0.0000000000e+00 +1.0567639167e+03 1.0567639167e+03 5.0000000000e-03 0.0000e+00 -1.0000e+00
       -1 -1    0    0    0  501 -0.0000000000e+00 -0.0000000000e+00 -8.0472049610e+02 8.0472049612e+02 5.0000000000e-03 0.0000e+00 1.0000e+00
  1000022  1    1    2    0    0 +8.2321909129e+01 +2.8767552867e+02 -4.0785381774e+01 6.8292129077e+02 6.1252260000e+02 0.0000e+00 1.0000e+00
  1000022  1    1    2    0    0 -2.6209676324e+02 -3.4907551649e+02 +4.9556436673e+02 9.0073104010e+02 6.1252260000e+02 0.0000e+00 -1.0000e+00
       21  1    1    2  502  501 +1.7977485411e+02 +6.1399987822e+01 -2.0273556439e+02 2.7783208192e+02 0.0000000000e+00 0.0000e+00 -1.0000e+00
<mgrwt>
<rscale>  1 0.72192327E+03</rscale>
<asrwt>0</asrwt>
<pdfrwt beam="1">  1        1 0.16257906E+00 0.72192327E+03</pdfrwt>
<pdfrwt beam="2">  1       -1 0.12380315E+00 0.72192327E+03</pdfrwt>
<totfact> 0.81398365E+00</totfact>
</mgrwt>
</event>
<event>
 5      1 +1.8937969e-08 7.29978500e+02 7.81665300e-03 9.66729500e-02
       -3 -1    0    0    0  501 -0.0000000000e+00 +0.0000000000e+00 +9.6672803315e+02 9.6672803782e+02 9.5000000000e-02 0.0000e+00 -1.0000e+00
        3 -1    0    0  502    0 +0.0000000000e+00 -0.0000000000e+00 -9.6363788338e+02 9.6363788806e+02 9.5000000000e-02 0.0000e+00 -1.0000e+00
  1000022  1    1    2    0    0 +3.0673943873e+02 -2.7771935773e+02 +3.8544571101e+02 8.3364828110e+02 6.1252260000e+02 0.0000e+00 1.0000e+00
  1000022  1    1    2    0    0 -3.0132218689e+02 +2.5115796456e+02 -5.5940689861e+02 9.1760307170e+02 6.1252260000e+02 0.0000e+00 1.0000e+00
       21  1    1    2  502  501 -5.4172518415e+00 +2.6561393169e+01 +1.7705133737e+02 1.7911457308e+02 0.0000000000e+00 0.0000e+00 1.0000e+00
<mgrwt>
<rscale>  1 0.72997847E+03</rscale>
<asrwt>0</asrwt>
<pdfrwt beam="2">  1        3 0.14825198E+00 0.72997847E+03</pdfrwt>
<pdfrwt beam="1">  1       -3 0.14872739E+00 0.72997847E+03</pdfrwt>
<totfact> 0.28476852E-01</totfact>
</mgrwt>
</event>
<event>
 5      1 +1.8937969e-08 8.75991600e+02 7.81665300e-03 9.45610100e-02
        2 -1    0    0  502    0 +0.0000000000e+00 +0.0000000000e+00 +1.5984169968e+03 1.5984169968e+03 2.5000000000e-03 0.0000e+00 1.0000e+00
       -2 -1    0    0    0  501 -0.0000000000e+00 -0.0000000000e+00 -6.5239950629e+02 6.5239950629e+02 2.5000000000e-03 0.0000e+00 -1.0000e+00
  1000022  1    1    2    0    0 +8.4175530224e+01 +7.3266105345e+02 +4.7310801503e+02 1.0690616767e+03 6.1252260000e+02 0.0000e+00 1.0000e+00
  1000022  1    1    2    0    0 -1.2272353836e+02 -5.2990448359e+02 +5.1971242593e+02 9.7012616179e+02 6.1252260000e+02 0.0000e+00 -1.0000e+00
       21  1    1    2  502  501 +3.8548008137e+01 -2.0275656986e+02 -4.6802950399e+01 2.1162866469e+02 0.0000000000e+00 0.0000e+00 -1.0000e+00
<mgrwt>
<rscale>  1 0.87599156E+03</rscale>
<asrwt>0</asrwt>
<pdfrwt beam="1">  1        2 0.24591030E+00 0.87599156E+03</pdfrwt>
<pdfrwt beam="2">  1       -2 0.10036916E+00 0.87599156E+03</pdfrwt>
<totfact> 0.92413837E+00</totfact>
</mgrwt>
</event>
<event>
 5      1 +1.8937969e-08 8.55708300e+02 7.81665300e-03 9.48270700e-02
        3 -1    0    0  502    0 +0.0000000000e+00 +0.0000000000e+00 +7.0265359235e+02 7.0265359877e+02 9.5000000000e-02 0.0000e+00 1.0000e+00
       -3 -1    0    0    0  501 -0.0000000000e+00 -0.0000000000e+00 -1.2372428624e+03 1.2372428661e+03 9.5000000000e-02 0.0000e+00 1.0000e+00
  1000022  1    1    2    0    0 -4.1458607356e+02 -4.4264956026e+02 -3.9662764744e+02 9.4885071103e+02 6.1252260000e+02 0.0000e+00 -1.0000e+00
  1000022  1    1    2    0    0 +4.7340424243e+02 +3.6031792658e+02 -4.7316269086e+01 8.5519784249e+02 6.1252260000e+02 0.0000e+00 -1.0000e+00
       21  1    1    2  502  501 -5.8818168864e+01 +8.2331633683e+01 -9.0645353563e+01 1.3584791134e+02 0.0000000000e+00 0.0000e+00 -1.0000e+00
<mgrwt>
<rscale>  1 0.85570832E+03</rscale>
<asrwt>0</asrwt>
<pdfrwt beam="1">  1        3 0.10810055E+00 0.85570832E+03</pdfrwt>
<pdfrwt beam="2">  1       -3 0.19034506E+00 0.85570832E+03</pdfrwt>
<totfact> 0.31656947E-01</totfact>
</mgrwt>
</event>
<event>
 5      1 +1.8937969e-08 8.78926700e+02 7.81665300e-03 9.45231400e-02
       -3 -1    0    0    0  501 -0.0000000000e+00 +0.0000000000e+00 +1.0772348432e+03 1.0772348474e+03 9.5000000000e-02 0.0000e+00 -1.0000e+00
        3 -1    0    0  502    0 +0.0000000000e+00 -0.0000000000e+00 -8.0249104919e+02 8.0249105481e+02 9.5000000000e-02 0.0000e+00 -1.0000e+00
  1000022  1    1    2    0    0 -9.5699115463e+01 +6.6365928668e+02 +5.3686918642e+01 9.0976271095e+02 6.1252260000e+02 0.0000e+00 1.0000e+00
  1000022  1    1    2    0    0 +1.2623204640e+02 -5.7343072983e+02 +1.8743951658e+02 8.6895042398e+02 6.1252260000e+02 0.0000e+00 1.0000e+00
       21  1    1    2  502  501 -3.0532930932e+01 -9.0228556848e+01 +3.3617358832e+01 1.0101276730e+02 0.0000000000e+00 0.0000e+00 -1.0000e+00
<mgrwt>
<rscale>  1 0.87892672E+03</rscale>
<asrwt>0</asrwt>
<pdfrwt beam="2">  1        3 0.12346016E+00 0.87892672E+03</pdfrwt>
<pdfrwt beam="1">  1       -3 0.16572844E+00 0.87892672E+03</pdfrwt>
<totfact> 0.33595269E-01</totfact>
</mgrwt>
</event>
<event>
 5      1 +1.8937969e-08 8.72325200e+02 7.81665300e-03 9.46085300e-02
        3 -1    0    0  502    0 +0.0000000000e+00 +0.0000000000e+00 +3.4843577823e+02 3.4843579118e+02 9.5000000000e-02 0.0000e+00 1.0000e+00
       -3 -1    0    0    0  501 -0.0000000000e+00 -0.0000000000e+00 -2.4368431778e+03 2.4368431797e+03 9.5000000000e-02 0.0000e+00 1.0000e+00
  1000022  1    1    2    0    0 -5.7105273629e+02 +2.4921703746e+02 -9.3225519220e+02 1.2776909009e+03 6.1252260000e+02 0.0000e+00 -1.0000e+00
  1000022  1    1    2    0    0 +5.9616760944e+02 -1.7609872738e+02 -1.1260104539e+03 1.4246087386e+03 6.1252260000e+02 0.0000e+00 -1.0000e+00
       21  1    1    2  502  501 -2.5114873155e+01 -7.3118310071e+01 -3.0141753469e+01 8.2979331303e+01 0.0000000000e+00 0.0000e+00 -1.0000e+00
<mgrwt>
<rscale>  1 0.87232516E+03</rscale>
<asrwt>0</asrwt>
<pdfrwt beam="1">  1        3 0.53605507E-01 0.87232516E+03</pdfrwt>
<pdfrwt beam="2">  1       -3 0.37489894E+00 0.87232516E+03</pdfrwt>
<totfact> 0.13271871E-01</totfact>
</mgrwt>
</event>
<event>
 5      1 +1.8937969e-08 8.77226500e+02 7.81665300e-03 9.45450600e-02
       -1 -1    0    0    0  501 -0.0000000000e+00 +0.0000000000e+00 +1.0086418799e+03 1.0086418799e+03 5.0000000000e-03 0.0000e+00 1.0000e+00
        1 -1    0    0  502    0 +0.0000000000e+00 -0.0000000000e+00 -1.5445904110e+03 1.5445904110e+03 5.0000000000e-03 0.0000e+00 -1.0000e+00
  1000022  1    1    2    0    0 -5.9116043574e+02 +1.2319050888e+02 +6.3339433994e+01 8.6246297409e+02 6.1252260000e+02 0.0000e+00 1.0000e+00
  1000022  1    1    2    0    0 +6.3207293742e+02 -8.1879589394e+01 -9.7182911858e+02 1.3137184769e+03 6.1252260000e+02 0.0000e+00 -1.0000e+00
       21  1    1    2  502  501 -4.0912501685e+01 -4.1310919489e+01 +3.7254115348e+02 3.7705083994e+02 0.0000000000e+00 0.0000e+00 -1.0000e+00
<mgrwt>
<rscale>  1 0.87722651E+03</rscale>
<asrwt>0</asrwt>
<pdfrwt beam="2">  1        1 0.23762929E+00 0.87722651E+03</pdfrwt>
<pdfrwt beam="1">  1       -1 0.15517567E+00 0.87722651E+03</pdfrwt>
<totfact> 0.19860807E+00</totfact>
</mgrwt>
</event>
<event>
 5      1 +1.8937969e-08 6.64009200e+02 7.81665300e-03 9.78084100e-02
       -1 -1    0    0    0  501 -0.0000000000e+00 +0.0000000000e+00 +2.0643892177e+03 2.0643892177e+03 5.0000000000e-03 0.0000e+00 1.0000e+00
        1 -1    0    0  502    0 +0.0000000000e+00 -0.0000000000e+00 -3.0688693364e+02 3.0688693368e+02 5.0000000000e-03 0.0000e+00 -1.0000e+00
  1000022  1    1    2    0    0 -8.9270428804e+01 -2.1625002783e+02 +1.0465321426e+03 1.2349683174e+03 6.1252260000e+02 0.0000e+00 1.0000e+00
  1000022  1    1    2    0    0 +1.6580180064e+02 +2.3804801066e+02 +7.7832653869e+02 1.0320529196e+03 6.1252260000e+02 0.0000e+00 -1.0000e+00
       21  1    1    2  502  501 -7.6531371831e+01 -2.1797982826e+01 -6.7356397232e+01 1.0425491441e+02 0.0000000000e+00 0.0000e+00 1.0000e+00
<mgrwt>
<rscale>  1 0.66400920E+03</rscale>
<asrwt>0</asrwt>
<pdfrwt beam="2">  1        1 0.47213373E-01 0.66400920E+03</pdfrwt>
<pdfrwt beam="1">  1       -1 0.31759835E+00 0.66400920E+03</pdfrwt>
<totfact> 0.23072337E+00</totfact>
</mgrwt>
</event>
<event>
 5      1 +1.8937969e-08 8.81757800e+02 7.81665300e-03 9.44867700e-02
        3 -1    0    0  502    0 +0.0000000000e+00 +0.0000000000e+00 +1.7253129825e+03 1.7253129851e+03 9.5000000000e-02 0.0000e+00 1.0000e+00
       -3 -1    0    0    0  501 -0.0000000000e+00 -0.0000000000e+00 -4.9170307463e+02 4.9170308381e+02 9.5000000000e-02 0.0000e+00 1.0000e+00
  1000022  1    1    2    0    0 +2.5589930746e+02 +6.0614114220e+02 +5.3443227956e+02 1.0457979426e+03 6.1252260000e+02 0.0000e+00 -1.0000e+00
  1000022  1    1    2    0    0 -2.4514420887e+02 -5.5871171754e+02 +5.7617374717e+02 1.0389487903e+03 6.1252260000e+02 0.0000e+00 -1.0000e+00
       21  1    1    2  502  501 -1.0755098593e+01 -4.7429424665e+01 +1.2300388109e+02 1.3226933595e+02 0.0000000000e+00 0.0000e+00 1.0000e+00
<mgrwt>
<rscale>  1 0.88175777E+03</rscale>
<asrwt>0</asrwt>
<pdfrwt beam="1">  1        3 0.26543277E+00 0.88175777E+03</pdfrwt>
<pdfrwt beam="2">  1       -3 0.75646628E-01 0.88175777E+03</pdfrwt>
<totfact> 0.25805983E-01</totfact>
</mgrwt>
</event>
<event>
 5      1 +1.8937969e-08 6.48123600e+02 7.81665300e-03 9.81030700e-02
       -1 -1    0    0    0  501 -0.0000000000e+00 +0.0000000000e+00 +3.0722427112e+02 3.0722427116e+02 5.0000000000e-03 0.0000e+00 1.0000e+00
        1 -1    0    0  502    0 +0.0000000000e+00 -0.0000000000e+00 -2.2177207350e+03 2.2177207350e+03 5.0000000000e-03 0.0000e+00 -1.0000e+00
  1000022  1    1    2    0    0 -2.2147920386e+01 +3.2228092444e+02 -3.9449408580e+02 7.9697242354e+02 6.1252260000e+02 0.0000e+00 -1.0000e+00
  1000022  1    1    2    0    0 -3.8372076994e+01 -1.7137625998e+02 -1.3635519986e+03 1.5050914348e+03 6.1252260000e+02 0.0000e+00 1.0000e+00
       21  1    1    2  502  501 +6.0519997379e+01 -1.5090466446e+02 -1.5245037947e+02 2.2288114779e+02 0.0000000000e+00 0.0000e+00 -1.0000e+00
<mgrwt>
<rscale>  1 0.64812357E+03</rscale>
<asrwt>0</asrwt>
<pdfrwt beam="2">  1        1 0.34118780E+00 0.64812357E+03</pdfrwt>
<pdfrwt beam="1">  1       -1 0.47265274E-01 0.64812357E+03</pdfrwt>
<totfact> 0.10104794E+01</totfact>
</mgrwt>
</event>
<event>
 5      1 +1.8937969e-08 8.98736000e+02 7.81665300e-03 9.42716300e-02
       -1 -1    0    0    0  501 -0.0000000000e+00 +0.0000000000e+00 +5.6664585307e+02 5.6664585309e+02 5.0000000000e-03 0.0000e+00 1.0000e+00
        1 -1    0    0  502    0 +0.0000000000e+00 -0.0000000000e+00 -1.6824818433e+03 1.6824818433e+03 5.0000000000e-03 0.0000e+00 -1.0000e+00
  1000022  1    1    2    0    0 +4.7455229980e+02 +4.2719766287e+02 -2.9448673894e+02 9.3252565827e+02 6.1252260000e+02 0.0000e+00 1.0000e+00
  1000022  1    1    2    0    0 -4.9784244707e+02 -4.7010887328e+02 -6.1741140667e+02 1.1069011859e+03 6.1252260000e+02 0.0000e+00 -1.0000e+00
       21  1    1    2  502  501 +2.3290147268e+01 +4.2911210418e+01 -2.0393784462e+02 2.0970085219e+02 0.0000000000e+00 0.0000e+00 1.0000e+00
<mgrwt>
<rscale>  1 0.89873603E+03</rscale>
<asrwt>0</asrwt>
<pdfrwt beam="2">  1        1 0.25884336E+00 0.89873603E+03</pdfrwt>
<pdfrwt beam="1">  1       -1 0.87176285E-01 0.89873603E+03</pdfrwt>
<totfact> 0.64781497E+00</totfact>
</mgrwt>
</event>
<event>
 5      1 +1.8937969e-08 6.32932600e+02 7.81665300e-03 9.83934300e-02
        1 -1    0    0  502    0 -0.0000000000e+00 +0.0000000000e+00 +3.0743496907e+03 3.0743496908e+03 5.0000000000e-03 0.0000e+00 -1.0000e+00
       21 -1    0    0  501  502 +0.0000000000e+00 -0.0000000000e+00 -9.3586757862e+02 9.3586757862e+02 0.0000000000e+00 0.0000e+00 -1.0000e+00
  1000022  1    1    2    0    0 -2.2139047114e+01 -1.8901335641e+02 +2.3090648152e+03 2.3964933638e+03 6.1252260000e+02 0.0000e+00 -1.0000e+00
  1000022  1    1    2    0    0 +3.8562552928e+02 -1.2488274887e+02 +4.2502651771e+02 8.4860722721e+02 6.1252260000e+02 0.0000e+00 -1.0000e+00
        1  1    1    2  501    0 -3.6348648216e+02 +3.1389610529e+02 -5.9560922079e+02 7.6511667839e+02 5.0000000000e-03 0.0000e+00 -1.0000e+00
<mgrwt>
<rscale>  1 0.63293256E+03</rscale>
<asrwt>0</asrwt>
<pdfrwt beam="2">  1       21 0.14397963E+00 0.63293256E+03</pdfrwt>
<pdfrwt beam="1">  1        1 0.47297687E+00 0.63293256E+03</pdfrwt>
<totfact> 0.17772616E+00</totfact>
</mgrwt>
</event>
<event>
 5      1 +1.8937969e-08 8.99541200e+02 7.81665300e-03 9.42615500e-02
       -2 -1    0    0    0  501 -0.0000000000e+00 +0.0000000000e+00 +3.5843360349e+02 3.5843360350e+02 2.5000000000e-03 0.0000e+00 -1.0000e+00
        2 -1    0    0  502    0 +0.0000000000e+00 -0.0000000000e+00 -4.1933127058e+03 4.1933127058e+03 2.5000000000e-03 0.0000e+00 1.0000e+00
  1000022  1    1    2    0    0 +7.6591945004e+01 -6.4218869828e+02 -3.2650821480e+03 3.3844080751e+03 6.1252260000e+02 0.0000e+00 1.0000e+00
  1000022  1    1    2    0    0 -6.8204468397e+01 +7.0887883449e+02 -5.7253990723e+02 1.1000667854e+03 6.1252260000e+02 0.0000e+00 -1.0000e+00
       21  1    1    2  502  501 -8.3874766067e+00 -6.6690136217e+01 +2.7429528917e+00 6.7271448795e+01 0.0000000000e+00 0.0000e+00 1.0000e+00
<mgrwt>
<rscale>  1 0.89954115E+03</rscale>
<asrwt>0</asrwt>
<pdfrwt beam="2">  1        2 0.64512500E+00 0.89954115E+03</pdfrwt>
<pdfrwt beam="1">  1       -2 0.55143634E-01 0.89954115E+03</pdfrwt>
<totfact> 0.79008466E-01</totfact>
</mgrwt>
</event>
<event>
 5      1 +1.8937969e-08 8.91770400e+02 7.81665300e-03 9.43592800e-02
        1 -1    0    0  502    0 +0.0000000000e+00 +0.0000000000e+00 +5.1947081039e+02 5.1947081042e+02 5.0000000000e-03 0.0000e+00 -1.0000e+00
       -1 -1    0    0    0  501 -0.0000000000e+00 -0.0000000000e+00 -1.8290872315e+03 1.8290872315e+03 5.0000000000e-03 0.0000e+00 1.0000e+00
  1000022  1    1    2    0    0 +4.9273983438e+02 -5.2128155678e+02 -4.9850217446e+02 1.0668717633e+03 6.1252260000e+02 0.0000e+00 -1.0000e+00
  1000022  1    1    2    0    0 -4.0912258979e+02 +4.0279767884e+02 -6.2976011387e+02 1.0494803476e+03 6.1252260000e+02 0.0000e+00 1.0000e+00
       21  1    1    2  502  501 -8.3617244585e+01 +1.1848387793e+02 -1.8135413281e+02 2.3220593104e+02 0.0000000000e+00 0.0000e+00 1.0000e+00
<mgrwt>
<rscale>  1 0.89177038E+03</rscale>
<asrwt>0</asrwt>
<pdfrwt beam="1">  1        1 0.79918587E-01 0.89177038E+03</pdfrwt>
<pdfrwt beam="2">  1       -1 0.28139803E+00 0.89177038E+03</pdfrwt>
<totfact> 0.18809799E+00</totfact>
</mgrwt>
</event>
<event>
 5      1 +1.8937969e-08 8.92201300e+02 7.81665300e-03 9.43538300e-02
        3 -1    0    0  502    0 +0.0000000000e+00 +0.0000000000e+00 +1.9867820860e+03 1.9867820883e+03 9.5000000000e-02 0.0000e+00 -1.0000e+00
       -3 -1    0    0    0  501 -0.0000000000e+00 -0.0000000000e+00 -5.8608476143e+02 5.8608476913e+02 9.5000000000e-02 0.0000e+00 -1.0000e+00
  1000022  1    1    2    0    0 +6.2056055861e+02 +1.5293019813e+02 +6.1374516053e+02 1.0771954836e+03 6.1252260000e+02 0.0000e+00 1.0000e+00
  1000022  1    1    2    0    0 -6.4083755424e+02 -1.4080081221e+02 +9.6392361789e+02 1.3171295746e+03 6.1252260000e+02 0.0000e+00 1.0000e+00
       21  1    1    2  502  501 +2.0276995629e+01 -1.2129385916e+01 -1.7697145387e+02 1.7854179914e+02 0.0000000000e+00 0.0000e+00 -1.0000e+00
<mgrwt>
<rscale>  1 0.89220131E+03</rscale>
<asrwt>0</asrwt>
<pdfrwt beam="1">  1        3 0.30565878E+00 0.89220131E+03</pdfrwt>
<pdfrwt beam="2">  1       -3 0.90166888E-01 0.89220131E+03</pdfrwt>
<totfact> 0.10381858E-01</totfact>
</mgrwt>
</event>
<event>
 5      1 +1.8937969e-08 1.04433700e+03 7.81665300e-03 9.26121000e-02
        2 -1    0    0  502    0 +0.0000000000e+00 +0.0000000000e+00 +1.7343458891e+03 1.7343458891e+03 2.5000000000e-03 0.0000e+00 -1.0000e+00
       -2 -1    0    0    0  501 -0.0000000000e+00 -0.0000000000e+00 -8.4243393463e+02 8.4243393464e+02 2.5000000000e-03 0.0000e+00 1.0000e+00
  1000022  1    1    2    0    0 -2.8446104452e+02 +8.0170988637e+02 -1.0401689873e+02 1.0534041382e+03 6.1252260000e+02 0.0000e+00 1.0000e+00
  1000022  1    1    2    0    0 +3.1309581604e+02 -7.7509759502e+02 +7.6231090061e+02 1.2865096644e+03 6.1252260000e+02 0.0000e+00 -1.0000e+00
       21  1    1    2  502  501 -2.8634771518e+01 -2.6612291344e+01 +2.3361795254e+02 2.3686602107e+02 0.0000000000e+00 0.0000e+00 -1.0000e+00
<mgrwt>
<rscale>  1 0.10443375E+04</rscale>
<asrwt>0</asrwt>
<pdfrwt beam="1">  1        2 0.26682245E+00 0.10443375E+04</pdfrwt>
<pdfrwt beam="2">  1       -2 0.12960522E+00 0.10443375E+04</pdfrwt>
<totfact> 0.40673144E+00</totfact>
</mgrwt>
</event>
<event>
 5      1 +1.8937969e-08 7.66289700e+02 7.81665300e-03 9.61013500e-02
       -3 -1    0    0    0  501 -0.0000000000e+00 +0.0000000000e+00 +5.6333502343e+02 5.6333503144e+02 9.5000000000e-02 0.0000e+00 1.0000e+00
        3 -1    0    0  502    0 +0.0000000000e+00 -0.0000000000e+00 -1.5667431151e+03 1.5667431180e+03 9.5000000000e-02 0.0000e+00 1.0000e+00
  1000022  1    1    2    0    0 +6.5621369999e+01 -4.8005724500e+02 -7.2426101875e+01 7.8434086877e+02 6.1252260000e+02 0.0000e+00 -1.0000e+00
  1000022  1    1    2    0    0 -1.1990841068e+02 +4.3665749149e+02 -9.9373639781e+02 1.2520957454e+03 6.1252260000e+02 0.0000e+00 -1.0000e+00
       21  1    1    2  502  501 +5.4287040679e+01 +4.3399753507e+01 +6.2754408043e+01 9.3641535223e+01 0.0000000000e+00 0.0000e+00 1.0000e+00
<mgrwt>
<rscale>  1 0.76628967E+03</rscale>
<asrwt>0</asrwt>
<pdfrwt beam="2">  1        3 0.24103740E+00 0.76628967E+03</pdfrwt>
<pdfrwt beam="1">  1       -3 0.86666928E-01 0.76628967E+03</pdfrwt>
<totfact> 0.26399346E-01</totfact>
</mgrwt>
</event>
<event>
 5      1 +1.8937969e-08 6.81272000e+02 7.81665300e-03 9.74980700e-02
       -3 -1    0    0    0  501 -0.0000000000e+00 +0.0000000000e+00 +2.3166532439e+03 2.3166532458e+03 9.5000000000e-02 0.0000e+00 -1.0000e+00
       21 -1    0    0  501  502 +0.0000000000e+00 -0.0000000000e+00 -4.0416346668e+02 4.0416346668e+02 0.0000000000e+00 0.0000e+00 -1.0000e+00
  1000022  1    1    2    0    0 -1.2226645571e+02 +2.5041393925e+02 +1.6872328238e+03 1.8164786716e+03 6.1252260000e+02 0.0000e+00 1.0000e+00
  1000022  1    1    2    0    0 +2.6021873023e+02 -2.9085874955e+02 +2.2579320344e+02 7.6057813930e+02 6.1252260000e+02 0.0000e+00 1.0000e+00
       -3  1    1    2    0  502 -1.3795227452e+02 +4.0444810295e+01 -5.3625001955e-01 1.4375990162e+02 9.5000000000e-02 0.0000e+00 1.0000e+00
<mgrwt>
<rscale>  1 0.68127203E+03</rscale>
<asrwt>0</asrwt>
<pdfrwt beam="2">  1       21 0.62178996E-01 0.68127203E+03</pdfrwt>
<pdfrwt beam="1">  1       -3 0.35640819E+00 0.68127203E+03</pdfrwt>
<totfact> 0.21219620E+00</totfact>
</mgrwt>
</event>
<event>
 5      1 +1.8937969e-08 1.09481400e+03 7.81665300e-03 9.21026100e-02
       -2 -1    0    0    0  501 -0.0000000000e+00 +0.0000000000e+00 +1.1817729201e+03 1.1817729201e+03 2.5000000000e-03 0.0000e+00 1.0000e+00
        2 -1    0    0  502    0 +0.0000000000e+00 -0.0000000000e+00 -1.2770524948e+03 1.2770524948e+03 2.5000000000e-03 0.0000e+00 -1.0000e+00
  1000022  1    1    2    0    0 -9.3458639742e+02 -1.5075062154e+02 -9.6446467243e+01 1.1316639699e+03 6.1252260000e+02 0.0000e+00 -1.0000e+00
  1000022  1    1    2    0    0 +8.5488068784e+02 +2.1119524158e+02 +2.1235322441e+02 1.0934817090e+03 6.1252260000e+02 0.0000e+00 1.0000e+00
       21  1    1    2  502  501 +7.9705709581e+01 -6.0444620042e+01 -2.1118633188e+02 2.3367973597e+02 0.0000000000e+00 0.0000e+00 1.0000e+00
<mgrwt>
<rscale>  1 0.10948144E+04</rscale>
<asrwt>0</asrwt>
<pdfrwt beam="2">  1        2 0.19646961E+00 0.10948144E+04</pdfrwt>
<pdfrwt beam="1">  1       -2 0.18181122E+00 0.10948144E+04</pdfrwt>
<totfact> 0.29479793E+00</totfact>
</mgrwt>
</event>
<event>
 5      1 +1.8937969e-08 6.76744700e+02 7.81665300e-03 9.75785000e-02
        2 -1    0    0  502    0 -0.0000000000e+00 +0.0000000000e+00 +2.1275902238e+03 2.1275902238e+03 2.5000000000e-03 0.0000e+00 -1.0000e+00
       21 -1    0    0  501  502 +0.0000000000e+00 -0.0000000000e+00 -3.6956367975e+02 3.6956367975e+02 0.0000000000e+00 0.0000e+00 1.0000e+00
  1000022  1    1    2    0    0 +7.1465414265e+01 +2.7867708900e+02 +3.3079319168e+02 7.5324384932e+02 6.1252260000e+02 0.0000e+00 1.0000e+00
  1000022  1    1    2    0    0 -4.9741655484e+01 -2.8365921412e+02 +1.5118298023e+03 1.6564268981e+03 6.1252260000e+02 0.0000e+00 -1.0000e+00
        2  1    1    2  501    0 -2.1723758780e+01 +4.9821251211e+00 -8.4596449919e+01 8.7483156158e+01 2.5000000000e-03 0.0000e+00 -1.0000e+00
<mgrwt>
<rscale>  1 0.67674468E+03</rscale>
<asrwt>0</asrwt>
<pdfrwt beam="2">  1       21 0.56855952E-01 0.67674468E+03</pdfrwt>
<pdfrwt beam="1">  1        2 0.32732157E+00 0.67674468E+03</pdfrwt>
<totfact> 0.19393497E+02</totfact>
</mgrwt>
</event>
<event>
 5      1 +1.8937969e-08 8.48109300e+02 7.81665300e-03 9.49287800e-02
       -3 -1    0    0    0  501 -0.0000000000e+00 +0.0000000000e+00 +2.2728117599e+03 2.2728117618e+03 9.5000000000e-02 0.0000e+00 1.0000e+00
       21 -1    0    0  501  502 +0.0000000000e+00 -0.0000000000e+00 -6.9230600649e+02 6.9230600649e+02 0.0000000000e+00 0.0000e+00 -1.0000e+00
  1000022  1    1    2    0    0 +5.9864772626e+02 -7.7862616844e+01 +1.2915460943e+03 1.5516819701e+03 6.1252260000e+02 0.0000e+00 -1.0000e+00
  1000022  1    1    2    0    0 -5.5735931991e+02 +5.5685470432e+01 +6.4696402185e+02 1.0523766741e+03 6.1252260000e+02 0.0000e+00 -1.0000e+00
       -3  1    1    2    0  502 -4.1288406356e+01 +2.2177146413e+01 -3.5800436276e+02 3.6105912411e+02 9.5000000000e-02 0.0000e+00 -1.0000e+00
<mgrwt>
<rscale>  1 0.84810933E+03</rscale>
<asrwt>0</asrwt>
<pdfrwt beam="2">  1       21 0.10650862E+00 0.84810933E+03</pdfrwt>
<pdfrwt beam="1">  1       -3 0.34966335E+00 0.84810933E+03</pdfrwt>
<totfact> 0.62486552E-01</totfact>
</mgrwt>
</event>
<event>
 5      1 +1.8937969e-08 6.82912300e+02 7.81665300e-03 9.74690900e-02
       -3 -1    0    0    0  501 -0.0000000000e+00 +0.0000000000e+00 +1.4072868866e+03 1.4072868898e+03 9.5000000000e-02 0.0000e+00 1.0000e+00
        3 -1    0    0  502    0 +0.0000000000e+00 -0.0000000000e+00 -5.0497598269e+02 5.0497599163e+02 9.5000000000e-02 0.0000e+00 1.0000e+00
  1000022  1    1    2    0    0 +1.0617176779e+02 +2.7682781148e+02 +9.5688427733e+02 1.1741880332e+03 6.1252260000e+02 0.0000e+00 1.0000e+00
  1000022  1    1    2    0    0 -8.3129470355e+01 -3.1159398360e+02 -6.4408417905e+01 6.9522205033e+02 6.1252260000e+02 0.0000e+00 1.0000e+00
       21  1    1    2  502  501 -2.3042297431e+01 +3.4766172117e+01 +9.8350445238e+00 4.2852797988e+01 0.0000000000e+00 0.0000e+00 -1.0000e+00
<mgrwt>
<rscale>  1 0.68291234E+03</rscale>
<asrwt>0</asrwt>
<pdfrwt beam="2">  1        3 0.77688615E-01 0.68291234E+03</pdfrwt>
<pdfrwt beam="1">  1       -3 0.21650567E+00 0.68291234E+03</pdfrwt>
<totfact> 0.47097343E-01</totfact>
</mgrwt>
</event>
<event>
 5      1 +1.8937969e-08 8.42382800e+02 7.81665300e-03 9.50061800e-02
       -3 -1    0    0    0  501 -0.0000000000e+00 +0.0000000000e+00 +4.4624825372e+02 4.4624826383e+02 9.5000000000e-02 0.0000e+00 -1.0000e+00
        3 -1    0    0  502    0 +0.0000000000e+00 -0.0000000000e+00 -1.7471664331e+03 1.7471664357e+03 9.5000000000e-02 0.0000e+00 -1.0000e+00
  1000022  1    1    2    0    0 +4.8552352068e+02 +2.7718956979e+02 -8.9560293492e+02 1.2205964523e+03 6.1252260000e+02 0.0000e+00 1.0000e+00
  1000022  1    1    2    0    0 -5.1228973569e+02 -2.9297575837e+02 -3.7553434131e+02 9.2977714820e+02 6.1252260000e+02 0.0000e+00 1.0000e+00
       21  1    1    2  502  501 +2.6766215018e+01 +1.5786188583e+01 -2.9780903188e+01 4.3041099092e+01 0.0000000000e+00 0.0000e+00 -1.0000e+00
<mgrwt>
<rscale>  1 0.84238283E+03</rscale>
<asrwt>0</asrwt>
<pdfrwt beam="2">  1        3 0.26879483E+00 0.84238283E+03</pdfrwt>
<pdfrwt beam="1">  1       -3 0.68653579E-01 0.84238283E+03</pdfrwt>
<totfact> 0.30695899E-01</totfact>
</mgrwt>
</event>
<event>
 5      1 +1.8937969e-08 7.73097500e+02 7.81665300e-03 9.59979500e-02
        3 -1    0    0  502    0 +0.0000000000e+00 +0.0000000000e+00 +7.0420456003e+02 7.0420456643e+02 9.5000000000e-02 0.0000e+00 1.0000e+00
       -3 -1    0    0    0  501 -0.0000000000e+00 -0.0000000000e+00 -1.4916900987e+03 1.4916901017e+03 9.5000000000e-02 0.0000e+00 1.0000e+00
  1000022  1    1    2    0    0 +9.2011770355e+01 +4.8323984304e+02 -7.7550491948e+02 1.1038925344e+03 6.1252260000e+02 0.0000e+00 -1.0000e+00
  1000022  1    1    2    0    0 -6.9681827368e+01 -4.6062180910e+02 +2.6447040639e+02 8.1373001632e+02 6.1252260000e+02 0.0000e+00 -1.0000e+00
       21  1    1    2  502  501 -2.2329942987e+01 -2.2618033940e+01 -2.7645102561e+02 2.7827211749e+02 0.0000000000e+00 0.0000e+00 -1.0000e+00
<mgrwt>
<rscale>  1 0.77309753E+03</rscale>
<asrwt>0</asrwt>
<pdfrwt beam="1">  1        3 0.10833916E+00 0.77309753E+03</pdfrwt>
<pdfrwt beam="2">  1       -3 0.22949078E+00 0.77309753E+03</pdfrwt>
<totfact> 0.18166099E-01</totfact>
</mgrwt>
</event>
<event>
 5      1 +1.8937969e-08 6.34381900e+02 7.81665300e-03 9.83653500e-02
       -2 -1    0    0    0  501 -0.0000000000e+00 +0.0000000000e+00 +6.8943876555e+02 6.8943876555e+02 2.5000000000e-03 0.0000e+00 1.0000e+00
        2 -1    0    0  502    0 +0.0000000000e+00 -0.0000000000e+00 -9.1004841482e+02 9.1004841482e+02 2.5000000000e-03 0.0000e+00 -1.0000e+00
  1000022  1    1    2    0    0 +1.1321320597e+02 -1.1183974635e+02 +3.4657488268e+02 7.2154240602e+02 6.1252260000e+02 0.0000e+00 1.0000e+00
  1000022  1    1    2    0    0 -1.2757064840e+02 +1.3654969728e+02 -5.3147584788e+02 8.3220826874e+02 6.1252260000e+02 0.0000e+00 -1.0000e+00
       21  1    1    2  502  501 +1.4357442435e+01 -2.4709950931e+01 -3.5708684068e+01 4.5736505618e+01 0.0000000000e+00 0.0000e+00 -1.0000e+00
<mgrwt>
<rscale>  1 0.63438190E+03</rscale>
<asrwt>0</asrwt>
<pdfrwt beam="2">  1        2 0.14000745E+00 0.63438190E+03</pdfrwt>
<pdfrwt beam="1">  1       -2 0.10606750E+00 0.63438190E+03</pdfrwt>
<totfact> 0.21297957E+01</totfact>
</mgrwt>
</event>
<event>
 5      1 +1.8937969e-08 7.99079000e+02 7.81665300e-03 9.56135100e-02
        3 -1    0    0  502    0 +0.0000000000e+00 +0.0000000000e+00 +5.2494919234e+02 5.2494920093e+02 9.5000000000e-02 0.0000e+00 1.0000e+00
       -3 -1    0    0    0  501 -0.0000000000e+00 -0.0000000000e+00 -2.0017301294e+03 2.0017301316e+03 9.5000000000e-02 0.0000e+00 1.0000e+00
  1000022  1    1    2    0    0 +2.7907800145e+02 -4.3702219581e+02 -9.7044494121e+02 1.2592935519e+03 6.1252260000e+02 0.0000e+00 -1.0000e+00
  1000022  1    1    2    0    0 -4.8080525853e+02 +2.3478340610e+02 -1.7870262096e+02 8.3271574181e+02 6.1252260000e+02 0.0000e+00 -1.0000e+00
       21  1    1    2  502  501 +2.0172725708e+02 +2.0223878972e+02 -3.2763337485e+02 4.3467003880e+02 0.0000000000e+00 0.0000e+00 1.0000e+00
<mgrwt>
<rscale>  1 0.79907898E+03</rscale>
<asrwt>0</asrwt>
<pdfrwt beam="1">  1        3 0.80761416E-01 0.79907898E+03</pdfrwt>
<pdfrwt beam="2">  1       -3 0.30795848E+00 0.79907898E+03</pdfrwt>
<totfact> 0.12857055E-01</totfact>
</mgrwt>
</event>
<event>
 5      1 +1.8937969e-08 8.71030800e+02 7.81665300e-03 9.46253700e-02
       21 -1    0    0  501  502 +0.0000000000e+00 +0.0000000000e+00 +1.3933390066e+03 1.3933390066e+03 0.0000000000e+00 0.0000e+00 1.0000e+00
       -3 -1    0    0    0  501 -0.0000000000e+00 -0.0000000000e+00 -7.1813151029e+02 7.1813151658e+02 9.5000000000e-02 0.0000e+00 1.0000e+00
  1000022  1    1    2    0    0 +6.4540050082e+02 +2.2008441685e+02 +3.8266185951e+02 9.9327387524e+02 6.1252260000e+02 0.0000e+00 -1.0000e+00
  1000022  1    1    2    0    0 -5.2801999393e+02 -1.7820598298e+02 +4.2964253413e+02 9.3291967983e+02 6.1252260000e+02 0.0000e+00 -1.0000e+00
       -3  1    1    2    0  502 -1.1738050688e+02 -4.1878433870e+01 -1.3709689735e+02 1.8527696810e+02 9.5000000000e-02 0.0000e+00 -1.0000e+00
<mgrwt>
<rscale>  1 0.87103083E+03</rscale>
<asrwt>0</asrwt>
<pdfrwt beam="1">  1       21 0.21435985E+00 0.87103083E+03</pdfrwt>
<pdfrwt beam="2">  1       -3 0.11048177E+00 0.87103083E+03</pdfrwt>
<totfact> 0.29414042E+00</totfact>
</mgrwt>
</event>
<event>
 5      1 +1.8937969e-08 7.20291200e+02 7.81665300e-03 9.68314700e-02
       -3 -1    0    0    0  501 -0.0000000000e+00 +0.0000000000e+00 +6.8181443318e+02 6.8181443980e+02 9.5000000000e-02 0.0000e+00 1.0000e+00
        3 -1    0    0  502    0 +0.0000000000e+00 -0.0000000000e+00 -1.6102910366e+03 1.6102910394e+03 9.5000000000e-02 0.0000e+00 1.0000e+00
  1000022  1    1    2    0    0 +2.9595273099e+02 -3.1845599903e+02 +2.5216078122e+02 7.9232016092e+02 6.1252260000e+02 0.0000e+00 -1.0000e+00
  1000022  1    1    2    0    0 -1.8382781396e+02 +6.4000662758e+01 -8.8710354625e+02 1.0954567026e+03 6.1252260000e+02 0.0000e+00 -1.0000e+00
       21  1    1    2  502  501 -1.1212491703e+02 +2.5445533627e+02 -2.9353383842e+02 4.0432861570e+02 0.0000000000e+00 0.0000e+00 1.0000e+00
<mgrwt>
<rscale>  1 0.72029120E+03</rscale>
<asrwt>0</asrwt>
<pdfrwt beam="2">  1        3 0.24773708E+00 0.72029120E+03</pdfrwt>
<pdfrwt beam="1">  1       -3 0.10489453E+00 0.72029120E+03</pdfrwt>
<totfact> 0.15567809E-01</totfact>
</mgrwt>
</event>
<event>
 5      1 +1.8937969e-08 7.77461900e+02 7.81665300e-03 9.59322600e-02
       21 -1    0    0  501  502 +0.0000000000e+00 +0.0000000000e+00 +7.9012497343e+02 7.9012497343e+02 0.0000000000e+00 0.0000e+00 1.0000e+00
        3 -1    0    0  502    0 -0.0000000000e+00 -0.0000000000e+00 -1.0631780307e+03 1.0631780349e+03 9.5000000000e-02 0.0000e+00 1.0000e+00
  1000022  1    1    2    0    0 +4.5101063360e+02 -1.8331549100e+02 +2.9019275464e+02 8.3451239129e+02 6.1252260000e+02 0.0000e+00 -1.0000e+00
  1000022  1    1    2    0    0 -4.1059200499e+02 +2.4334101336e+02 -5.1219121547e+02 9.3022815484e+02 6.1252260000e+02 0.0000e+00 -1.0000e+00
        3  1    1    2  501    0 -4.0418628606e+01 -6.0025522353e+01 -5.1054596411e+01 8.8562462205e+01 9.5000000000e-02 0.0000e+00 -1.0000e+00
<mgrwt>
<rscale>  1 0.77746186E+03</rscale>
<asrwt>0</asrwt>
<pdfrwt beam="1">  1       21 0.12155769E+00 0.77746186E+03</pdfrwt>
<pdfrwt beam="2">  1        3 0.16356585E+00 0.77746186E+03</pdfrwt>
<totfact> 0.57026300E+00</totfact>
</mgrwt>
</event>
<event>
 5      1 +1.8937969e-08 6.87461100e+02 7.81665300e-03 9.73891900e-02
        2 -1    0    0  502    0 +0.0000000000e+00 +0.0000000000e+00 +1.6065030446e+03 1.6065030446e+03 2.5000000000e-03 0.0000e+00 -1.0000e+00
       -2 -1    0    0    0  501 -0.0000000000e+00 -0.0000000000e+00 -4.5101654431e+02 4.5101654432e+02 2.5000000000e-03 0.0000e+00 1.0000e+00
  1000022  1    1    2    0    0 +2.9106320908e+02 -4.9819203088e+01 +9.0818566160e+02 1.1345417031e+03 6.1252260000e+02 0.0000e+00 -1.0000e+00
  1000022  1    1    2    0    0 -3.1577784437e+02 +3.7845679836e+01 +1.6310421758e+01 6.9036070851e+02 6.1252260000e+02 0.0000e+00 1.0000e+00
       21  1    1    2  502  501 +2.4714635290e+01 +1.1973523253e+01 +2.3099041697e+02 2.3261717733e+02 0.0000000000e+00 0.0000e+00 -1.0000e+00
<mgrwt>
<rscale>  1 0.68746112E+03</rscale>
<asrwt>0</asrwt>
<pdfrwt beam="1">  1        2 0.24715431E+00 0.68746112E+03</pdfrwt>
<pdfrwt beam="2">  1       -2 0.69387162E-01 0.68746112E+03</pdfrwt>
<totfact> 0.21672907E+01</totfact>
</mgrwt>
</event>
<event>
 5      1 +1.8937969e-08 8.30226300e+02 7.81665300e-03 9.51726800e-02
        3 -1    0    0  502    0 +0.0000000000e+00 +0.0000000000e+00 +9.1067290815e+02 9.1067291310e+02 9.5000000000e-02 0.0000e+00 1.0000e+00
       -3 -1    0    0    0  501 -0.0000000000e+00 -0.0000000000e+00 -1.1933426920e+03 1.1933426958e+03 9.5000000000e-02 0.0000e+00 1.0000e+00
  1000022  1    1    2    0    0 +7.5807838728e+01 +6.5086591076e+02 +1.7428504239e+02 9.1374639464e+02 6.1252260000e+02 0.0000e+00 1.0000e+00
  1000022  1    1    2    0    0 +1.6973999667e+02 -4.1902299818e+02 -3.2207380930e+02 8.2662410660e+02 6.1252260000e+02 0.0000e+00 -1.0000e+00
       21  1    1    2  502  501 -2.4554783540e+02 -2.3184291258e+02 -1.3488101693e+02 3.6364510764e+02 0.0000000000e+00 0.0000e+00 1.0000e+00
<mgrwt>
<rscale>  1 0.83022629E+03</rscale>
<asrwt>0</asrwt>
<pdfrwt beam="1">  1        3 0.14010353E+00 0.83022629E+03</pdfrwt>
<pdfrwt beam="2">  1       -3 0.18359118E+00 0.83022629E+03</pdfrwt>
<totfact> 0.18535857E-01</totfact>
</mgrwt>
</event>
<event>
 5      1 +1.8937969e-08 1.03079200e+03 7.81665300e-03 9.27540300e-02
       -2 -1    0    0    0  501 -0.0000000000e+00 +0.0000000000e+00 +2.0533061739e+03 2.0533061739e+03 2.5000000000e-03 0.0000e+00 1.0000e+00
        2 -1    0    0  502    0 +0.0000000000e+00 -0.0000000000e+00 -5.8775793168e+02 5.8775793168e+02 2.5000000000e-03 0.0000e+00 -1.0000e+00
  1000022  1    1    2    0    0 -4.9818529988e+02 +7.3132836400e+02 +6.8104489374e+02 1.2735917132e+03 6.1252260000e+02 0.0000e+00 1.0000e+00
  1000022  1    1    2    0    0 +4.9239153127e+02 -6.0040829548e+02 +6.9076834367e+02 1.2063516823e+03 6.1252260000e+02 0.0000e+00 -1.0000e+00
       21  1    1    2  502  501 +5.7937686136e+00 -1.3092006852e+02 +9.3735004817e+01 1.6112071011e+02 0.0000000000e+00 0.0000e+00 1.0000e+00
<mgrwt>
<rscale>  1 0.10307917E+04</rscale>
<asrwt>0</asrwt>
<pdfrwt beam="2">  1        2 0.90424297E-01 0.10307917E+04</pdfrwt>
<pdfrwt beam="1">  1       -2 0.31589326E+00 0.10307917E+04</pdfrwt>
<totfact> 0.12967910E+00</totfact>
</mgrwt>
</event>
<event>
 5      1 +1.8937969e-08 7.63702600e+02 7.81665300e-03 9.61409500e-02
        2 -1    0    0  502    0 -0.0000000000e+00 +0.0000000000e+00 +3.0754185865e+03 3.0754185865e+03 2.5000000000e-03 0.0000e+00 -1.0000e+00
       21 -1    0    0  501  502 +0.0000000000e+00 -0.0000000000e+00 -6.6776136601e+02 6.6776136601e+02 0.0000000000e+00 0.0000e+00 1.0000e+00
  1000022  1    1    2    0    0 +5.2268492699e+01 +3.9765544182e+02 +1.6241892767e+03 1.7815826076e+03 6.1252260000e+02 0.0000e+00 -1.0000e+00
  1000022  1    1    2    0    0 +5.4840027719e+02 -7.3213623568e+02 +3.8105538700e+02 1.1649693022e+03 6.1252260000e+02 0.0000e+00 1.0000e+00
        2  1    1    2  501    0 -6.0066876989e+02 +3.3448079386e+02 +4.0241255687e+02 7.9662804277e+02 2.5000000000e-03 0.0000e+00 -1.0000e+00
<mgrwt>
<rscale>  1 0.76370258E+03</rscale>
<asrwt>0</asrwt>
<pdfrwt beam="2">  1       21 0.10273252E+00 0.76370258E+03</pdfrwt>
<pdfrwt beam="1">  1        2 0.47314131E+00 0.76370258E+03</pdfrwt>
<totfact> 0.13618457E+01</totfact>
</mgrwt>
</event>
<event>
 5      1 +1.8937969e-08 8.32128900e+02 7.81665300e-03 9.51464200e-02
       -3 -1    0    0    0  501 -0.0000000000e+00 +0.0000000000e+00 +5.1238372038e+02 5.1238372919e+02 9.5000000000e-02 0.0000e+00 -1.0000e+00
        3 -1    0    0  502    0 +0.0000000000e+00 -0.0000000000e+00 -1.6894406437e+03 1.6894406464e+03 9.5000000000e-02 0.0000e+00 -1.0000e+00
  1000022  1    1    2    0    0 -4.3253867360e+02 +3.6664232827e+02 -3.6062528008e+02 9.0925839517e+02 6.1252260000e+02 0.0000e+00 1.0000e+00
  1000022  1    1    2    0    0 +4.0759636624e+02 -3.8592937322e+02 -8.8696555066e+02 1.2153057650e+03 6.1252260000e+02 0.0000e+00 1.0000e+00
       21  1    1    2  502  501 +2.4942307356e+01 +1.9287044948e+01 +7.0533907380e+01 7.7260215437e+01 0.0000000000e+00 0.0000e+00 1.0000e+00
<mgrwt>
<rscale>  1 0.83212891E+03</rscale>
<asrwt>0</asrwt>
<pdfrwt beam="2">  1        3 0.25991394E+00 0.83212891E+03</pdfrwt>
<pdfrwt beam="1">  1       -3 0.78828266E-01 0.83212891E+03</pdfrwt>
<totfact> 0.25385425E-01</totfact>
</mgrwt>
</event>
<event>
 5      1 +1.8937969e-08 8.61800200e+02 7.81665300e-03 9.47463500e-02
       -3 -1    0    0    0  501 -0.0000000000e+00 +0.0000000000e+00 +7.4622053710e+02 7.4622054315e+02 9.5000000000e-02 0.0000e+00 1.0000e+00
        3 -1    0    0  502    0 +0.0000000000e+00 -0.0000000000e+00 -1.1415348258e+03 1.1415348297e+03 9.5000000000e-02 0.0000e+00 1.0000e+00
  1000022  1    1    2    0    0 +4.6320836657e+02 +4.0901617826e+02 -1.1354363880e+02 8.7745787270e+02 6.1252260000e+02 0.0000e+00 -1.0000e+00
  1000022  1    1    2    0    0 -4.2425729380e+02 -4.2130995561e+02 -3.5482784861e+02 9.2659757592e+02 6.1252260000e+02 0.0000e+00 -1.0000e+00
       21  1    1    2  502  501 -3.8951072776e+01 +1.2293777357e+01 +7.3057198743e+01 8.3699924254e+01 0.0000000000e+00 0.0000e+00 1.0000e+00
<mgrwt>
<rscale>  1 0.86180022E+03</rscale>
<asrwt>0</asrwt>
<pdfrwt beam="2">  1        3 0.17562074E+00 0.86180022E+03</pdfrwt>
<pdfrwt beam="1">  1       -3 0.11480316E+00 0.86180022E+03</pdfrwt>
<totfact> 0.34398668E-01</totfact>
</mgrwt>
</event>
<event>
 5      1 +1.8937969e-08 1.06483200e+03 7.81665300e-03 9.24016300e-02
       21 -1    0    0  501  502 +0.0000000000e+00 +0.0000000000e+00 +2.6049595826e+03 2.6049595826e+03 0.0000000000e+00 0.0000e+00 1.0000e+00
       -4 -1    0    0    0  501 -0.0000000000e+00 -0.0000000000e+00 -5.8108995695e+02 5.8109134477e+02 1.2700000000e+00 0.0000e+00 -1.0000e+00
  1000022  1    1    2    0    0 +3.4570894438e+02 -7.9047872708e+02 +1.2739522841e+03 1.6560524296e+03 6.1252260000e+02 0.0000e+00 1.0000e+00
  1000022  1    1    2    0    0 -3.6881807951e+02 +7.9371945134e+02 +3.4238568532e+02 1.1217973240e+03 6.1252260000e+02 0.0000e+00 -1.0000e+00
       -4  1    1    2    0  502 +2.3109135135e+01 -3.2407242627e+00 +4.0753165629e+02 4.0820117369e+02 1.2700000000e+00 0.0000e+00 -1.0000e+00
<mgrwt>
<rscale>  1 0.10648322E+04</rscale>
<asrwt>0</asrwt>
<pdfrwt beam="1">  1       21 0.40076300E+00 0.10648322E+04</pdfrwt>
<pdfrwt beam="2">  1       -4 0.89398587E-01 0.10648322E+04</pdfrwt>
<totfact> 0.25253964E-01</totfact>
</mgrwt>
</event>
<event>
 5      1 +1.8937969e-08 8.47500100e+02 7.81665300e-03 9.49369800e-02
       -3 -1    0    0    0  501 -0.0000000000e+00 +0.0000000000e+00 +3.7767332057e+03 3.7767332069e+03 9.5000000000e-02 0.0000e+00 -1.0000e+00
        3 -1    0    0  502    0 +0.0000000000e+00 -0.0000000000e+00 -2.3889147972e+02 2.3889149861e+02 9.5000000000e-02 0.0000e+00 -1.0000e+00
  1000022  1    1    2    0    0 +5.1651956741e+02 +2.9874634424e+02 +1.1312602296e+03 1.4180886729e+03 6.1252260000e+02 0.0000e+00 1.0000e+00
  1000022  1    1    2    0    0 -4.8815214415e+02 -2.9420507942e+02 +1.7438110202e+03 1.9341432093e+03 6.1252260000e+02 0.0000e+00 1.0000e+00
       21  1    1    2  502  501 -2.8367423258e+01 -4.5412648175e+00 +6.6277047619e+02 6.6339282322e+02 0.0000000000e+00 0.0000e+00 -1.0000e+00
<mgrwt>
<rscale>  1 0.84750013E+03</rscale>
<asrwt>0</asrwt>
<pdfrwt beam="2">  1        3 0.36752538E-01 0.84750013E+03</pdfrwt>
<pdfrwt beam="1">  1       -3 0.58103587E+00 0.84750013E+03</pdfrwt>
<totfact> 0.22911616E-02</totfact>
</mgrwt>
</event>
<event>
 5      1 +1.8937969e-08 8.40376900e+02 7.81665300e-03 9.50334500e-02
        3 -1    0    0  502    0 +0.0000000000e+00 +0.0000000000e+00 +9.0054593136e+02 9.0054593637e+02 9.5000000000e-02 0.0000e+00 1.0000e+00
       -3 -1    0    0    0  501 -0.0000000000e+00 -0.0000000000e+00 -9.3590825024e+02 9.3590825506e+02 9.5000000000e-02 0.0000e+00 1.0000e+00
  1000022  1    1    2    0    0 -3.8791342308e+02 +4.1642633837e+02 -2.9891182495e+02 8.8793014010e+02 6.1252260000e+02 0.0000e+00 -1.0000e+00
  1000022  1    1    2    0    0 +4.1468158324e+02 -4.1522231245e+02 +1.8866918518e+02 8.6899389019e+02 6.1252260000e+02 0.0000e+00 -1.0000e+00
       21  1    1    2  502  501 -2.6768160160e+01 -1.2040259187e+00 +7.4880320886e+01 7.9530161151e+01 0.0000000000e+00 0.0000e+00 1.0000e+00
<mgrwt>
<rscale>  1 0.84037691E+03</rscale>
<asrwt>0</asrwt>
<pdfrwt beam="1">  1        3 0.13854553E+00 0.84037691E+03</pdfrwt>
<pdfrwt beam="2">  1       -3 0.14398588E+00 0.84037691E+03</pdfrwt>
<totfact> 0.36552281E-01</totfact>
</mgrwt>
</event>
<event>
 5      1 +1.8937969e-08 8.65393200e+02 7.81665300e-03 9.46990600e-02
       -1 -1    0    0    0  501 -0.0000000000e+00 +0.0000000000e+00 +6.3088125557e+02 6.3088125559e+02 5.0000000000e-03 0.0000e+00 1.0000e+00
        1 -1    0    0  502    0 +0.0000000000e+00 -0.0000000000e+00 -1.5103104652e+03 1.5103104652e+03 5.0000000000e-03 0.0000e+00 1.0000e+00
  1000022  1    1    2    0    0 -4.3871249880e+02 +3.7904937803e+02 -3.4589612062e+02 9.1157838355e+02 6.1252260000e+02 0.0000e+00 -1.0000e+00
  1000022  1    1    2    0    0 +4.1877057175e+02 -4.8925638081e+02 -2.4773998049e+02 9.2265900059e+02 6.1252260000e+02 0.0000e+00 -1.0000e+00
       21  1    1    2  502  501 +1.9941927055e+01 +1.1020700278e+02 -2.8579310850e+02 3.0695433664e+02 0.0000000000e+00 0.0000e+00 -1.0000e+00
<mgrwt>
<rscale>  1 0.86539319E+03</rscale>
<asrwt>0</asrwt>
<pdfrwt beam="2">  1        1 0.23235545E+00 0.86539319E+03</pdfrwt>
<pdfrwt beam="1">  1       -1 0.97058656E-01 0.86539319E+03</pdfrwt>
<totfact> 0.67153312E+00</totfact>
</mgrwt>
</event>
<event>
 5      1 +1.8937969e-08 7.90064600e+02 7.81665300e-03 9.57451100e-02
        3 -1    0    0  502    0 +0.0000000000e+00 +0.0000000000e+00 +1.6223042735e+03 1.6223042763e+03 9.5000000000e-02 0.0000e+00 -1.0000e+00
       -3 -1    0    0    0  501 -0.0000000000e+00 -0.0000000000e+00 -5.8318223270e+02 5.8318224043e+02 9.5000000000e-02 0.0000e+00 -1.0000e+00
  1000022  1    1    2    0    0 -1.2879184234e+02 +4.8579846013e+02 +1.0082226259e+03 1.2822964873e+03 6.1252260000e+02 0.0000e+00 1.0000e+00
  1000022  1    1    2    0    0 +1.4329170798e+02 -4.6946106750e+02 +1.5253331238e+02 7.9961025154e+02 6.1252260000e+02 0.0000e+00 1.0000e+00
       21  1    1    2  502  501 -1.4499865647e+01 -1.6337392624e+01 -1.2163389742e+02 1.2357977789e+02 0.0000000000e+00 0.0000e+00 -1.0000e+00
<mgrwt>
<rscale>  1 0.79006459E+03</rscale>
<asrwt>0</asrwt>
<pdfrwt beam="1">  1        3 0.24958527E+00 0.79006459E+03</pdfrwt>
<pdfrwt beam="2">  1       -3 0.89720345E-01 0.79006459E+03</pdfrwt>
<totfact> 0.21740087E-01</totfact>
</mgrwt>
</event>
<event>
 5      1 +1.8937969e-08 8.66286900e+02 7.81665300e-03 9.46873400e-02
       -3 -1    0    0    0  501 -0.0000000000e+00 +0.0000000000e+00 +7.3010876149e+02 7.3010876767e+02 9.5000000000e-02 0.0000e+00 1.0000e+00
        3 -1    0    0  502    0 +0.0000000000e+00 -0.0000000000e+00 -1.0673745937e+03 1.0673745980e+03 9.5000000000e-02 0.0000e+00 1.0000e+00
  1000022  1    1    2    0    0 -1.2745854839e+02 +5.9469719501e+02 -2.5598992032e+02 9.0034727196e+02 6.1252260000e+02 0.0000e+00 -1.0000e+00
  1000022  1    1    2    0    0 +1.5007727077e+02 -5.9970253849e+02 -8.0173318079e+01 8.7394394461e+02 6.1252260000e+02 0.0000e+00 -1.0000e+00
       21  1    1    2  502  501 -2.2618722375e+01 +5.0053434834e+00 -1.1025938402e+00 2.3192149069e+01 0.0000000000e+00 0.0000e+00 1.0000e+00
<mgrwt>
<rscale>  1 0.86628687E+03</rscale>
<asrwt>0</asrwt>
<pdfrwt beam="2">  1        3 0.16421148E+00 0.86628687E+03</pdfrwt>
<pdfrwt beam="1">  1       -3 0.11232443E+00 0.86628687E+03</pdfrwt>
<totfact> 0.43491707E-01</totfact>
</mgrwt>
</event>
<event>
 5      1 +1.8937969e-08 6.72424800e+02 7.81665300e-03 9.76558700e-02
        3 -1    0    0  502    0 +0.0000000000e+00 +0.0000000000e+00 +6.3225228542e+02 6.3225229256e+02 9.5000000000e-02 0.0000e+00 1.0000e+00
       -3 -1    0    0    0  501 -0.0000000000e+00 -0.0000000000e+00 -1.2848530073e+03 1.2848530108e+03 9.5000000000e-02 0.0000e+00 1.0000e+00
  1000022  1    1    2    0    0 +1.9045942782e+02 +2.3076602901e+02 +2.6679298389e+02 7.3204520731e+02 6.1252260000e+02 0.0000e+00 -1.0000e+00
  1000022  1    1    2    0    0 -1.8994987296e+02 -1.9592977694e+02 -9.3186695378e+02 1.1480546097e+03 6.1252260000e+02 0.0000e+00 -1.0000e+00
       21  1    1    2  502  501 -5.0955485816e-01 -3.4836252062e+01 +1.2473248037e+01 3.7005486356e+01 0.0000000000e+00 0.0000e+00 1.0000e+00
<mgrwt>
<rscale>  1 0.67242481E+03</rscale>
<asrwt>0</asrwt>
<pdfrwt beam="1">  1        3 0.97269583E-01 0.67242481E+03</pdfrwt>
<pdfrwt beam="2">  1       -3 0.19766969E+00 0.67242481E+03</pdfrwt>
<totfact> 0.36957592E-01</totfact>
</mgrwt>
</event>
<event>
 5      1 +1.8937969e-08 9.43234200e+02 7.81665300e-03 9.37309400e-02
       21 -1    0    0  501  502 +0.0000000000e+00 +0.0000000000e+00 +7.1720264972e+02 7.1720264972e+02 0.0000000000e+00 0.0000e+00 1.0000e+00
       -2 -1    0    0    0  501 -0.0000000000e+00 -0.0000000000e+00 -1.3622794732e+03 1.3622794732e+03 2.5000000000e-03 0.0000e+00 -1.0000e+00
  1000022  1    1    2    0    0 +2.2489092983e+02 +6.7797095259e+02 -3.7712281244e+02 1.0137189423e+03 6.1252260000e+02 0.0000e+00 -1.0000e+00
  1000022  1    1    2    0    0 -2.5156818933e+02 -6.7537078202e+02 -3.2712600970e+02 1.0008034816e+03 6.1252260000e+02 0.0000e+00 1.0000e+00
       -2  1    1    2    0  502 +2.6677259504e+01 -2.6001705699e+00 +5.9171998649e+01 6.4959698983e+01 2.5000000000e-03 0.0000e+00 -1.0000e+00
<mgrwt>
<rscale>  1 0.94323422E+03</rscale>
<asrwt>0</asrwt>
<pdfrwt beam="1">  1       21 0.11033887E+00 0.94323422E+03</pdfrwt>
<pdfrwt beam="2">  1       -2 0.20958146E+00 0.94323422E+03</pdfrwt>
<totfact> 0.51146658E+00</totfact>
</mgrwt>
</event>
<event>
 5      1 +1.8937969e-08 7.28934400e+02 7.81665300e-03 9.66899100e-02
        1 -1    0    0  502    0 +0.0000000000e+00 +0.0000000000e+00 +8.1174814410e+02 8.1174814412e+02 5.0000000000e-03 0.0000e+00 -1.0000e+00
       -1 -1    0    0    0  501 -0.0000000000e+00 -0.0000000000e+00 -8.8571588496e+02 8.8571588497e+02 5.0000000000e-03 0.0000e+00 1.0000e+00
  1000022  1    1    2    0    0 +2.4849453507e+02 +3.2190472757e+02 +3.2444249322e+02 8.0362867949e+02 6.1252260000e+02 0.0000e+00 -1.0000e+00
  1000022  1    1    2    0    0 -2.5605525688e+02 -2.6864826703e+02 -2.8972522307e+02 7.7256768399e+02 6.1252260000e+02 0.0000e+00 1.0000e+00
       21  1    1    2  502  501 +7.5607218109e+00 -5.3256460535e+01 -1.0868501101e+02 1.2126766561e+02 0.0000000000e+00 0.0000e+00 -1.0000e+00
<mgrwt>
<rscale>  1 0.72893437E+03</rscale>
<asrwt>0</asrwt>
<pdfrwt beam="1">  1        1 0.12488433E+00 0.72893437E+03</pdfrwt>
<pdfrwt beam="2">  1       -1 0.13626398E+00 0.72893437E+03</pdfrwt>
<totfact> 0.10043454E+01</totfact>
</mgrwt>
</event>
<event>
 5      1 +1.8937969e-08 8.67764300e+02 7.81665300e-03 9.46680000e-02
       -3 -1    0    0    0  501 -0.0000000000e+00 +0.0000000000e+00 +7.3790852574e+02 7.3790853186e+02 9.5000000000e-02 0.0000e+00 -1.0000e+00
       21 -1    0    0  501  502 +0.0000000000e+00 -0.0000000000e+00 -1.1392486798e+03 1.1392486798e+03 0.0000000000e+00 0.0000e+00 -1.0000e+00
  1000022  1    1    2    0    0 +6.0216636607e+02 -3.8639663509e+01 -1.9995409007e+02 8.8275870410e+02 6.1252260000e+02 0.0000e+00 1.0000e+00
  1000022  1    1    2    0    0 -6.2427759877e+02 +2.6440369126e+01 -8.9335689342e+01 8.7953761395e+02 6.1252260000e+02 0.0000e+00 1.0000e+00
       -3  1    1    2    0  502 +2.2111232698e+01 +1.2199294383e+01 -1.1205037461e+02 1.1486089356e+02 9.5000000000e-02 0.0000e+00 1.0000e+00
<mgrwt>
<rscale>  1 0.86776427E+03</rscale>
<asrwt>0</asrwt>
<pdfrwt beam="2">  1       21 0.17526903E+00 0.86776427E+03</pdfrwt>
<pdfrwt beam="1">  1       -3 0.11352439E+00 0.86776427E+03</pdfrwt>
<totfact> 0.51518959E+00</totfact>
</mgrwt>
</event>
<event>
 5      1 +1.8937969e-08 6.27155400e+02 7.81665300e-03 9.85061600e-02
       21 -1    0    0  501  502 +0.0000000000e+00 +0.0000000000e+00 +1.2265997560e+03 1.2265997560e+03 0.0000000000e+00 0.0000e+00 1.0000e+00
        3 -1    0    0  502    0 -0.0000000000e+00 -0.0000000000e+00 -7.1543969687e+02 7.1543970318e+02 9.5000000000e-02 0.0000e+00 1.0000e+00
  1000022  1    1    2    0    0 -1.3549393001e+02 +2.7791458866e+01 -4.4260001884e+02 7.6825105431e+02 6.1252260000e+02 0.0000e+00 -1.0000e+00
  1000022  1    1    2    0    0 +1.0060577077e+02 -6.9642314716e+01 +8.3183397988e+02 1.0402419328e+03 6.1252260000e+02 0.0000e+00 -1.0000e+00
        3  1    1    2  501    0 +3.4888159234e+01 +4.1850855850e+01 +1.2192609805e+02 1.3354647207e+02 9.5000000000e-02 0.0000e+00 -1.0000e+00
<mgrwt>
<rscale>  1 0.62715538E+03</rscale>
<asrwt>0</asrwt>
<pdfrwt beam="1">  1       21 0.18870765E+00 0.62715538E+03</pdfrwt>
<pdfrwt beam="2">  1        3 0.11006765E+00 0.62715538E+03</pdfrwt>
<totfact> 0.46957394E+00</totfact>
</mgrwt>
</event>
<event>
 5      1 +1.8937969e-08 1.00510600e+03 7.81665300e-03 9.30296200e-02
        2 -1    0    0  502    0 +0.0000000000e+00 +0.0000000000e+00 +1.4495887003e+03 1.4495887003e+03 2.5000000000e-03 0.0000e+00 -1.0000e+00
       -2 -1    0    0    0  501 -0.0000000000e+00 -0.0000000000e+00 -1.1773689051e+03 1.1773689051e+03 2.5000000000e-03 0.0000e+00 1.0000e+00
  1000022  1    1    2    0    0 -7.1732889220e+02 +1.1932384999e+02 -9.7520025745e+01 9.5576828348e+02 6.1252260000e+02 0.0000e+00 -1.0000e+00
  1000022  1    1    2    0    0 +8.6252870342e+02 -1.0453113000e+02 -2.0117492528e+02 1.0819139557e+03 6.1252260000e+02 0.0000e+00 1.0000e+00
       21  1    1    2  502  501 -1.4519981122e+02 -1.4792719996e+01 +5.7091474628e+02 5.8927536624e+02 0.0000000000e+00 0.0000e+00 -1.0000e+00
<mgrwt>
<rscale>  1 0.10051060E+04</rscale>
<asrwt>0</asrwt>
<pdfrwt beam="1">  1        2 0.22301365E+00 0.10051060E+04</pdfrwt>
<pdfrwt beam="2">  1       -2 0.18113368E+00 0.10051060E+04</pdfrwt>
<totfact> 0.23947651E+00</totfact>
</mgrwt>
</event>
<event>
 5      1 +1.8937969e-08 6.79677800e+02 7.81665300e-03 9.75263100e-02
        1 -1    0    0  502    0 +0.0000000000e+00 +0.0000000000e+00 +1.9546157046e+03 1.9546157046e+03 5.0000000000e-03 0.0000e+00 1.0000e+00
       -1 -1    0    0    0  501 -0.0000000000e+00 -0.0000000000e+00 -4.3519300347e+02 4.3519300350e+02 5.0000000000e-03 0.0000e+00 1.0000e+00
  1000022  1    1    2    0    0 -1.7196111374e+02 -2.3719431181e+02 -2.5352960468e+01 6.7945454176e+02 6.1252260000e+02 0.0000e+00 -1.0000e+00
  1000022  1    1    2    0    0 +2.1095089740e+02 +2.1912253633e+02 +1.3813360717e+03 1.5413592201e+03 6.1252260000e+02 0.0000e+00 -1.0000e+00
       21  1    1    2  502  501 -3.8989783659e+01 +1.8071775484e+01 +1.6343958990e+02 1.6899494621e+02 0.0000000000e+00 0.0000e+00 1.0000e+00
<mgrwt>
<rscale>  1 0.67967780E+03</rscale>
<asrwt>0</asrwt>
<pdfrwt beam="1">  1        1 0.30071011E+00 0.67967780E+03</pdfrwt>
<pdfrwt beam="2">  1       -1 0.66952770E-01 0.67967780E+03</pdfrwt>
<totfact> 0.76607740E+00</totfact>
</mgrwt>
</event>
<event>
 5      1 +1.8937969e-08 7.62365600e+02 7.81665300e-03 9.61614800e-02
        3 -1    0    0  502    0 +0.0000000000e+00 +0.0000000000e+00 +1.4361076035e+03 1.4361076066e+03 9.5000000000e-02 0.0000e+00 1.0000e+00
       -3 -1    0    0    0  501 -0.0000000000e+00 -0.0000000000e+00 -7.2917375861e+02 7.2917376480e+02 9.5000000000e-02 0.0000e+00 1.0000e+00
  1000022  1    1    2    0    0 +2.9072585121e+02 +3.9257049325e+02 +5.7960831680e+02 9.7455777107e+02 6.1252260000e+02 0.0000e+00 -1.0000e+00
  1000022  1    1    2    0    0 -2.6920929443e+02 -3.5047054279e+02 -2.6130376783e+02 7.9922890348e+02 6.1252260000e+02 0.0000e+00 -1.0000e+00
       21  1    1    2  502  501 -2.1516556781e+01 -4.2099950466e+01 +3.8862929588e+02 3.9149469685e+02 0.0000000000e+00 0.0000e+00 1.0000e+00
<mgrwt>
<rscale>  1 0.76236560E+03</rscale>
<asrwt>0</asrwt>
<pdfrwt beam="1">  1        3 0.22093963E+00 0.76236560E+03</pdfrwt>
<pdfrwt beam="2">  1       -3 0.11218058E+00 0.76236560E+03</pdfrwt>
<totfact> 0.18917037E-01</totfact>
</mgrwt>
</event>
<event>
 5      1 +1.8937969e-08 1.08873800e+03 7.81665300e-03 9.21623800e-02
        2 -1    0    0  502    0 +0.0000000000e+00 +0.0000000000e+00 +2.0745264511e+03 2.0745264511e+03 2.5000000000e-03 0.0000e+00 -1.0000e+00
       -2 -1    0    0    0  501 -0.0000000000e+00 -0.0000000000e+00 -6.8767188087e+02 6.8767188087e+02 2.5000000000e-03 0.0000e+00 1.0000e+00
  1000022  1    1    2    0    0 +7.2425231763e+02 -5.3521933310e+02 +7.1694858478e+02 1.3039173144e+03 6.1252260000e+02 0.0000e+00 -1.0000e+00
  1000022  1    1    2    0    0 -7.3547034198e+02 +5.1832306783e+02 +7.8462166606e+02 1.3417863172e+03 6.1252260000e+02 0.0000e+00 1.0000e+00
       21  1    1    2  502  501 +1.1218024351e+01 +1.6896265267e+01 -1.1471568059e+02 1.1649470041e+02 0.0000000000e+00 0.0000e+00 1.0000e+00
<mgrwt>
<rscale>  1 0.10887382E+04</rscale>
<asrwt>0</asrwt>
<pdfrwt beam="1">  1        2 0.31915791E+00 0.10887382E+04</pdfrwt>
<pdfrwt beam="2">  1       -2 0.10579568E+00 0.10887382E+04</pdfrwt>
<totfact> 0.43412841E+00</totfact>
</mgrwt>
</event>
<event>
 5      1 +1.8937969e-08 6.23190400e+02 7.81665300e-03 9.85842800e-02
       -2 -1    0    0    0  501 -0.0000000000e+00 +0.0000000000e+00 +7.4986023601e+02 7.4986023601e+02 2.5000000000e-03 0.0000e+00 1.0000e+00
        2 -1    0    0  502    0 +0.0000000000e+00 -0.0000000000e+00 -1.7029358840e+03 1.7029358840e+03 2.5000000000e-03 0.0000e+00 -1.0000e+00
  1000022  1    1    2    0    0 +7.9655311846e+01 +2.0575281251e+01 -1.3822665406e+03 1.5141377202e+03 6.1252260000e+02 0.0000e+00 -1.0000e+00
  1000022  1    1    2    0    0 -1.1679344524e+02 -1.7301981486e+01 +5.3792931975e+02 8.2370623160e+02 6.1252260000e+02 0.0000e+00 1.0000e+00
       21  1    1    2  502  501 +3.7138133393e+01 -3.2732997644e+00 -1.0873842711e+02 1.1495216820e+02 0.0000000000e+00 0.0000e+00 -1.0000e+00
<mgrwt>
<rscale>  1 0.62319044E+03</rscale>
<asrwt>0</asrwt>
<pdfrwt beam="2">  1        2 0.26199014E+00 0.62319044E+03</pdfrwt>
<pdfrwt beam="1">  1       -2 0.11536311E+00 0.62319044E+03</pdfrwt>
<totfact> 0.60106623E+00</totfact>
</mgrwt>
</event>
<event>
 5      1 +1.8937969e-08 6.45305400e+02 7.81665300e-03 9.81562800e-02
        1 -1    0    0  502    0 +0.0000000000e+00 +0.0000000000e+00 +8.6476983402e+02 8.6476983404e+02 5.0000000000e-03 0.0000e+00 -1.0000e+00
       -1 -1    0    0    0  501 -0.0000000000e+00 -0.0000000000e+00 -6.0028241206e+02 6.0028241208e+02 5.0000000000e-03 0.0000e+00 1.0000e+00
  1000022  1    1    2    0    0 +1.6083304988e+02 -1.1053460955e+02 -1.6324672967e+02 6.6326359775e+02 6.1252260000e+02 0.0000e+00 1.0000e+00
  1000022  1    1    2    0    0 -1.8173577230e+02 +1.2713494414e+02 +4.1239782517e+02 7.7100394725e+02 6.1252260000e+02 0.0000e+00 -1.0000e+00
       21  1    1    2  502  501 +2.0902722421e+01 -1.6600334597e+01 +1.5336326466e+01 3.0784701116e+01 0.0000000000e+00 0.0000e+00 -1.0000e+00
<mgrwt>
<rscale>  1 0.64530543E+03</rscale>
<asrwt>0</asrwt>
<pdfrwt beam="1">  1        1 0.13304151E+00 0.64530543E+03</pdfrwt>
<pdfrwt beam="2">  1       -1 0.92351140E-01 0.64530543E+03</pdfrwt>
<totfact> 0.23105455E+01</totfact>
</mgrwt>
</event>
<event>
 5      1 +1.8937969e-08 7.07647400e+02 7.81665300e-03 9.70424300e-02
       21 -1    0    0  501  502 +0.0000000000e+00 +0.0000000000e+00 +2.0805338110e+03 2.0805338110e+03 0.0000000000e+00 0.0000e+00 1.0000e+00
       -3 -1    0    0    0  501 -0.0000000000e+00 -0.0000000000e+00 -8.8085306912e+02 8.8085307424e+02 9.5000000000e-02 0.0000e+00 -1.0000e+00
  1000022  1    1    2    0    0 +2.9513886912e+02 -1.4634440356e+02 +5.1258788471e+02 8.6397564293e+02 6.1252260000e+02 0.0000e+00 1.0000e+00
  1000022  1    1    2    0    0 -3.2918512061e+02 +1.4798842864e+02 -5.2566267191e+02 8.8417679159e+02 6.1252260000e+02 0.0000e+00 1.0000e+00
       -3  1    1    2    0  502 +3.4046251491e+01 -1.6440250749e+00 +1.2127555291e+03 1.2132344507e+03 9.5000000000e-02 0.0000e+00 1.0000e+00
<mgrwt>
<rscale>  1 0.70764741E+03</rscale>
<asrwt>0</asrwt>
<pdfrwt beam="1">  1       21 0.32008212E+00 0.70764741E+03</pdfrwt>
<pdfrwt beam="2">  1       -3 0.13551586E+00 0.70764741E+03</pdfrwt>
<totfact> 0.40391651E-01</totfact>
</mgrwt>
</event>
<event>
 5      1 +1.8937969e-08 7.65997400e+02 7.81665300e-03 9.61058200e-02
        3 -1    0    0  502    0 +0.0000000000e+00 +0.0000000000e+00 +9.8738676138e+02 9.8738676595e+02 9.5000000000e-02 0.0000e+00 -1.0000e+00
       -3 -1    0    0    0  501 -0.0000000000e+00 -0.0000000000e+00 -1.1663528062e+03 1.1663528101e+03 9.5000000000e-02 0.0000e+00 -1.0000e+00
  1000022  1    1    2    0    0 +2.3163306707e+02 -4.1385262955e+02 -7.0400479404e+02 1.0467734054e+03 6.1252260000e+02 0.0000e+00 1.0000e+00
  1000022  1    1    2    0    0 -2.2713850174e+02 +3.5399129595e+02 +1.9046258358e+02 7.6704737001e+02 6.1252260000e+02 0.0000e+00 1.0000e+00
       21  1    1    2  502  501 -4.4945653253e+00 +5.9861333607e+01 +3.3457616564e+02 3.3991880059e+02 0.0000000000e+00 0.0000e+00 -1.0000e+00
<mgrwt>
<rscale>  1 0.76599741E+03</rscale>
<asrwt>0</asrwt>
<pdfrwt beam="1">  1        3 0.15190566E+00 0.76599741E+03</pdfrwt>
<pdfrwt beam="2">  1       -3 0.17943889E+00 0.76599741E+03</pdfrwt>
<totfact> 0.16128995E-01</totfact>
</mgrwt>
</event>
<event>
 5      1 +1.8937969e-08 6.65924500e+02 7.81665300e-03 9.77734800e-02
        3 -1    0    0  502    0 +0.0000000000e+00 +0.0000000000e+00 +6.6436984005e+02 6.6436984684e+02 9.5000000000e-02 0.0000e+00 -1.0000e+00
       -3 -1    0    0    0  501 -0.0000000000e+00 -0.0000000000e+00 -1.4327515178e+03 1.4327515210e+03 9.5000000000e-02 0.0000e+00 -1.0000e+00
  1000022  1    1    2    0    0 -1.2681222753e+02 -1.2843150428e+02 -8.8488734184e+02 1.0912312017e+03 6.1252260000e+02 0.0000e+00 1.0000e+00
  1000022  1    1    2    0    0 +2.6383157446e+02 +9.8563658825e+01 +3.2988483262e+02 7.5055301800e+02 6.1252260000e+02 0.0000e+00 1.0000e+00
       21  1    1    2  502  501 -1.3701934693e+02 +2.9867845454e+01 -2.1337916853e+02 2.5533714808e+02 0.0000000000e+00 0.0000e+00 -1.0000e+00
<mgrwt>
<rscale>  1 0.66592447E+03</rscale>
<asrwt>0</asrwt>
<pdfrwt beam="1">  1        3 0.10221075E+00 0.66592447E+03</pdfrwt>
<pdfrwt beam="2">  1       -3 0.22042331E+00 0.66592447E+03</pdfrwt>
<totfact> 0.23860131E-01</totfact>
</mgrwt>
</event>
<event>
 5      1 +1.8937969e-08 7.01359800e+02 7.81665300e-03 9.71491000e-02
       -3 -1    0    0    0  501 -0.0000000000e+00 +0.0000000000e+00 +8.4677587581e+02 8.4677588114e+02 9.5000000000e-02 0.0000e+00 -1.0000e+00
        3 -1    0    0  502    0 +0.0000000000e+00 -0.0000000000e+00 -9.2362880568e+02 9.2362881057e+02 9.5000000000e-02 0.0000e+00 -1.0000e+00
  1000022  1    1    2    0    0 -2.2783280202e+02 -2.6007533370e+02 +4.5482383862e+02 8.3761305181e+02 6.1252260000e+02 0.0000e+00 1.0000e+00
  1000022  1    1    2    0    0 +2.6465557844e+02 +2.0158247277e+02 -4.7636415378e+02 8.4426584145e+02 6.1252260000e+02 0.0000e+00 1.0000e+00
       21  1    1    2  502  501 -3.6822776420e+01 +5.8492860934e+01 -5.5312614715e+01 8.8525798444e+01 0.0000000000e+00 0.0000e+00 1.0000e+00
<mgrwt>
<rscale>  1 0.70135982E+03</rscale>
<asrwt>0</asrwt>
<pdfrwt beam="2">  1        3 0.14209674E+00 0.70135982E+03</pdfrwt>
<pdfrwt beam="1">  1       -3 0.13027321E+00 0.70135982E+03</pdfrwt>
<totfact> 0.44553541E-01</totfact>
</mgrwt>
</event>
<event>
 5      1 +1.8937969e-08 8.66886700e+02 7.81665300e-03 9.46794800e-02
       -3 -1    0    0    0  501 -0.0000000000e+00 +0.0000000000e+00 +8.2622444808e+02 8.2622445354e+02 9.5000000000e-02 0.0000e+00 -1.0000e+00
        3 -1    0    0  502    0 +0.0000000000e+00 -0.0000000000e+00 -9.3309401322e+02 9.3309401806e+02 9.5000000000e-02 0.0000e+00 -1.0000e+00
  1000022  1    1    2    0    0 +2.4028185095e+02 +5.7418665750e+02 -6.5210636033e+01 8.7570659933e+02 6.1252260000e+02 0.0000e+00 1.0000e+00
  1000022  1    1    2    0    0 -2.2449236487e+02 -5.6122060610e+02 -4.8888852261e+01 8.6193935168e+02 6.1252260000e+02 0.0000e+00 1.0000e+00
       21  1    1    2  502  501 -1.5789486079e+01 -1.2966051404e+01 +7.2299231492e+00 2.1672520583e+01 0.0000000000e+00 0.0000e+00 1.0000e+00
<mgrwt>
<rscale>  1 0.86688665E+03</rscale>
<asrwt>0</asrwt>
<pdfrwt beam="2">  1        3 0.14355293E+00 0.86688665E+03</pdfrwt>
<pdfrwt beam="1">  1       -3 0.12711145E+00 0.86688665E+03</pdfrwt>
<totfact> 0.45685991E-01</totfact>
</mgrwt>
</event>
<event>
 5      1 +1.8937969e-08 8.19710800e+02 7.81665300e-03 9.53191700e-02
        3 -1    0    0  502    0 +0.0000000000e+00 +0.0000000000e+00 +6.7946243641e+02 6.7946244305e+02 9.5000000000e-02 0.0000e+00 -1.0000e+00
       -3 -1    0    0    0  501 -0.0000000000e+00 -0.0000000000e+00 -1.2781566862e+03 1.2781566898e+03 9.5000000000e-02 0.0000e+00 -1.0000e+00
  1000022  1    1    2    0    0 -5.2977205730e+02 +5.7451095496e+01 -6.6440703587e+02 1.0490851757e+03 6.1252260000e+02 0.0000e+00 1.0000e+00
  1000022  1    1    2    0    0 +5.7046106583e+02 -3.3518716880e+01 +1.3030469502e+01 8.3779655087e+02 6.1252260000e+02 0.0000e+00 1.0000e+00
       21  1    1    2  502  501 -4.0689008524e+01 -2.3932378617e+01 +5.2682316552e+01 7.0737406216e+01 0.0000000000e+00 0.0000e+00 1.0000e+00
<mgrwt>
<rscale>  1 0.81971081E+03</rscale>
<asrwt>0</asrwt>
<pdfrwt beam="1">  1        3 0.10453268E+00 0.81971081E+03</pdfrwt>
<pdfrwt beam="2">  1       -3 0.19663949E+00 0.81971081E+03</pdfrwt>
<totfact> 0.31319410E-01</totfact>
</mgrwt>
</event>
<event>
 5      1 +1.8937969e-08 1.89111200e+03 7.81665300e-03 8.65929300e-02
       -2 -1    0    0    0  501 -0.0000000000e+00 +0.0000000000e+00 +1.7794071697e+03 1.7794071697e+03 2.5000000000e-03 0.0000e+00 1.0000e+00
        2 -1    0    0  502    0 +0.0000000000e+00 -0.0000000000e+00 -2.1465929248e+03 2.1465929248e+03 2.5000000000e-03 0.0000e+00 -1.0000e+00
  1000022  1    1    2    0    0 -1.2432324496e+03 -1.2661617588e+03 +1.2646413213e+02 1.8814807029e+03 6.1252260000e+02 0.0000e+00 1.0000e+00
  1000022  1    1    2    0    0 +1.2460937327e+03 +1.2984758515e+03 -5.5042807488e+02 1.9791271128e+03 6.1252260000e+02 0.0000e+00 -1.0000e+00
       21  1    1    2  502  501 -2.8612831499e+00 -3.2314092711e+01 +5.6778187680e+01 6.5392278789e+01 0.0000000000e+00 0.0000e+00 -1.0000e+00
<mgrwt>
<rscale>  1 0.18911117E+04</rscale>
<asrwt>0</asrwt>
<pdfrwt beam="2">  1        2 0.33024507E+00 0.18911117E+04</pdfrwt>
<pdfrwt beam="1">  1       -2 0.27375495E+00 0.18911117E+04</pdfrwt>
<totfact> 0.22889477E-01</totfact>
</mgrwt>
</event>
<event>
 5      1 +1.8937969e-08 1.41198700e+03 7.81665300e-03 9.10285500e-02
        2 -1    0    0  502    0 -0.0000000000e+00 +0.0000000000e+00 +1.4483953930e+03 1.4483953930e+03 2.5000000000e-03 0.0000e+00 1.0000e+00
       21 -1    0    0  501  502 +0.0000000000e+00 -0.0000000000e+00 -1.1112816462e+03 1.1112816462e+03 0.0000000000e+00 0.0000e+00 -1.0000e+00
  1000022  1    1    2    0    0 -4.2792447453e+02 +1.6515823161e+02 +7.6724710830e+02 1.0836275458e+03 6.1252260000e+02 0.0000e+00 1.0000e+00
  1000022  1    1    2    0    0 +9.3112290970e+00 -4.9241470623e+02 -5.1258089401e+02 9.3834005047e+02 6.1252260000e+02 0.0000e+00 -1.0000e+00
        2  1    1    2  501    0 +4.1861324544e+02 +3.2725647461e+02 +8.2447532516e+01 5.3770944297e+02 2.5000000000e-03 0.0000e+00 1.0000e+00
<mgrwt>
<rscale>  1 0.12114943E+04</rscale>
<asrwt>0</asrwt>
<pdfrwt beam="2">  1       21 0.17096641E+00 0.14119870E+04</pdfrwt>
<pdfrwt beam="1">  1        2 0.22283006E+00 0.14119870E+04</pdfrwt>
<totfact> 0.25824820E+01</totfact>
</mgrwt>
</event>
<event>
 5      1 +1.8937969e-08 7.31185500e+02 7.81665300e-03 9.66533900e-02
       -3 -1    0    0    0  501 -0.0000000000e+00 +0.0000000000e+00 +1.7704842042e+03 1.7704842068e+03 9.5000000000e-02 0.0000e+00 -1.0000e+00
        3 -1    0    0  502    0 +0.0000000000e+00 -0.0000000000e+00 -4.7806238192e+02 4.7806239136e+02 9.5000000000e-02 0.0000e+00 -1.0000e+00
  1000022  1    1    2    0    0 +1.3655194003e+02 +3.7087190951e+02 -4.1096398071e+00 7.2896723537e+02 6.1252260000e+02 0.0000e+00 1.0000e+00
  1000022  1    1    2    0    0 -1.5328635660e+02 -3.8387146709e+02 +1.1201476469e+03 1.3419272322e+03 6.1252260000e+02 0.0000e+00 1.0000e+00
       21  1    1    2  502  501 +1.6734416567e+01 +1.2999557581e+01 +1.7638381524e+02 1.7765213051e+02 0.0000000000e+00 0.0000e+00 -1.0000e+00
<mgrwt>
<rscale>  1 0.73118546E+03</rscale>
<asrwt>0</asrwt>
<pdfrwt beam="2">  1        3 0.73548060E-01 0.73118546E+03</pdfrwt>
<pdfrwt beam="1">  1       -3 0.27238218E+00 0.73118546E+03</pdfrwt>
<totfact> 0.25140827E-01</totfact>
</mgrwt>
</event>
<event>
 5      1 +1.8937969e-08 8.25234500e+02 7.81665300e-03 9.52419300e-02
        2 -1    0    0  502    0 +0.0000000000e+00 +0.0000000000e+00 +1.6770631519e+03 1.6770631519e+03 2.5000000000e-03 0.0000e+00 -1.0000e+00
       -2 -1    0    0    0  501 -0.0000000000e+00 -0.0000000000e+00 -5.8177462981e+02 5.8177462981e+02 2.5000000000e-03 0.0000e+00 1.0000e+00
  1000022  1    1    2    0    0 -5.4235840425e+02 -3.6583581733e+00 +1.0644894259e+03 1.3425675758e+03 6.1252260000e+02 0.0000e+00 1.0000e+00
  1000022  1    1    2    0    0 +5.8222427804e+02 +3.8097377756e+01 +7.2552506351e+01 8.4904906915e+02 6.1252260000e+02 0.0000e+00 -1.0000e+00
       21  1    1    2  502  501 -3.9865873789e+01 -3.4439019582e+01 -4.1753410185e+01 6.7221136742e+01 0.0000000000e+00 0.0000e+00 1.0000e+00
<mgrwt>
<rscale>  1 0.82523455E+03</rscale>
<asrwt>0</asrwt>
<pdfrwt beam="1">  1        2 0.25800971E+00 0.82523455E+03</pdfrwt>
<pdfrwt beam="2">  1       -2 0.89503790E-01 0.82523455E+03</pdfrwt>
<totfact> 0.11003285E+01</totfact>
</mgrwt>
</event>
<event>
 5      1 +1.8937969e-08 7.93853000e+02 7.81665300e-03 9.56895700e-02
        2 -1    0    0  502    0 +0.0000000000e+00 +0.0000000000e+00 +6.6146169853e+02 6.6146169854e+02 2.5000000000e-03 0.0000e+00 -1.0000e+00
       -2 -1    0    0    0  501 -0.0000000000e+00 -0.0000000000e+00 -1.2649541384e+03 1.2649541384e+03 2.5000000000e-03 0.0000e+00 1.0000e+00
  1000022  1    1    2    0    0 -3.6511229473e+02 -3.5982591234e+02 -6.9025657698e+02 1.0556608132e+03 6.1252260000e+02 0.0000e+00 1.0000e+00
  1000022  1    1    2    0    0 +3.2848800093e+02 +3.6223601815e+02 +7.9519351293e+00 7.8381532798e+02 6.1252260000e+02 0.0000e+00 -1.0000e+00
       21  1    1    2  502  501 +3.6624293798e+01 -2.4101058090e+00 +7.8812202016e+01 8.6939695726e+01 0.0000000000e+00 0.0000e+00 -1.0000e+00
<mgrwt>
<rscale>  1 0.79385300E+03</rscale>
<asrwt>0</asrwt>
<pdfrwt beam="1">  1        2 0.10176334E+00 0.79385300E+03</pdfrwt>
<pdfrwt beam="2">  1       -2 0.19460833E+00 0.79385300E+03</pdfrwt>
<totfact> 0.64447551E+00</totfact>
</mgrwt>
</event>
<event>
 5      1 +1.8937969e-08 7.66760500e+02 7.81665300e-03 9.60941700e-02
       -2 -1    0    0    0  501 -0.0000000000e+00 +0.0000000000e+00 +5.3073055818e+02 5.3073055818e+02 2.5000000000e-03 0.0000e+00 1.0000e+00
        2 -1    0    0  502    0 +0.0000000000e+00 -0.0000000000e+00 -1.7617294142e+03 1.7617294142e+03 2.5000000000e-03 0.0000e+00 -1.0000e+00
  1000022  1    1    2    0    0 -2.2488555825e+02 +3.9641574636e+02 -1.0205459474e+03 1.2745261569e+03 6.1252260000e+02 0.0000e+00 -1.0000e+00
  1000022  1    1    2    0    0 +3.0598808304e+02 -3.6603149514e+02 -3.5162729906e+02 8.5231065660e+02 6.1252260000e+02 0.0000e+00 1.0000e+00
       21  1    1    2  502  501 -8.1102524784e+01 -3.0384251219e+01 +1.4117439045e+02 1.6562315891e+02 0.0000000000e+00 0.0000e+00 -1.0000e+00
<mgrwt>
<rscale>  1 0.76676047E+03</rscale>
<asrwt>0</asrwt>
<pdfrwt beam="2">  1        2 0.27103529E+00 0.76676047E+03</pdfrwt>
<pdfrwt beam="1">  1       -2 0.81650856E-01 0.76676047E+03</pdfrwt>
<totfact> 0.12288590E+01</totfact>
</mgrwt>
</event>
<event>
 5      1 +1.8937969e-08 8.54412100e+02 7.81665300e-03 9.48443400e-02
       21 -1    0    0  501  502 +0.0000000000e+00 +0.0000000000e+00 +1.2877701908e+03 1.2877701908e+03 0.0000000000e+00 0.0000e+00 1.0000e+00
        3 -1    0    0  502    0 -0.0000000000e+00 -0.0000000000e+00 -8.1095961208e+02 8.1095961765e+02 9.5000000000e-02 0.0000e+00 1.0000e+00
  1000022  1    1    2    0    0 -1.8248232192e+02 +6.0799356352e+02 +2.3798134922e+02 9.1366023728e+02 6.1252260000e+02 0.0000e+00 -1.0000e+00
  1000022  1    1    2    0    0 +1.4879609298e+02 -5.5070852950e+02 -9.7096196478e+01 8.4263382832e+02 6.1252260000e+02 0.0000e+00 -1.0000e+00
        3  1    1    2  501    0 +3.3686228944e+01 -5.7285034021e+01 +3.3592542592e+02 3.4243574280e+02 9.5000000000e-02 0.0000e+00 -1.0000e+00
<mgrwt>
<rscale>  1 0.85441206E+03</rscale>
<asrwt>0</asrwt>
<pdfrwt beam="1">  1       21 0.19811849E+00 0.85441206E+03</pdfrwt>
<pdfrwt beam="2">  1        3 0.12476302E+00 0.85441206E+03</pdfrwt>
<totfact> 0.28317868E+00</totfact>
</mgrwt>
</event>
<event>
 5      1 +1.8937969e-08 8.46084600e+02 7.81665300e-03 9.49560700e-02
        3 -1    0    0  502    0 +0.0000000000e+00 +0.0000000000e+00 +6.8991274299e+02 6.8991274953e+02 9.5000000000e-02 0.0000e+00 -1.0000e+00
       -3 -1    0    0    0  501 -0.0000000000e+00 -0.0000000000e+00 -1.2870336037e+03 1.2870336072e+03 9.5000000000e-02 0.0000e+00 -1.0000e+00
  1000022  1    1    2    0    0 +3.3876921404e+02 -5.2443653866e+02 +1.7617483600e+01 8.7481002206e+02 6.1252260000e+02 0.0000e+00 1.0000e+00
  1000022  1    1    2    0    0 -2.5365413083e+02 +4.4623080235e+02 -5.3426408117e+02 9.6129308277e+02 6.1252260000e+02 0.0000e+00 1.0000e+00
       21  1    1    2  502  501 -8.5115083204e+01 +7.8205736318e+01 -8.0474263157e+01 1.4084325192e+02 0.0000000000e+00 0.0000e+00 -1.0000e+00
<mgrwt>
<rscale>  1 0.84608459E+03</rscale>
<asrwt>0</asrwt>
<pdfrwt beam="1">  1        3 0.10614042E+00 0.84608459E+03</pdfrwt>
<pdfrwt beam="2">  1       -3 0.19800517E+00 0.84608459E+03</pdfrwt>
<totfact> 0.29547585E-01</totfact>
</mgrwt>
</event>
<event>
 5      1 +1.8937969e-08 6.59083900e+02 7.81665300e-03 9.78988200e-02
       21 -1    0    0  501  502 +0.0000000000e+00 +0.0000000000e+00 +1.4802995670e+03 1.4802995670e+03 0.0000000000e+00 0.0000e+00 1.0000e+00
       -3 -1    0    0    0  501 -0.0000000000e+00 -0.0000000000e+00 -5.3486212773e+02 5.3486213616e+02 9.5000000000e-02 0.0000e+00 1.0000e+00
  1000022  1    1    2    0    0 +1.5983142271e+02 +1.8461012809e+02 -1.9542382765e+02 6.8775096583e+02 6.1252260000e+02 0.0000e+00 -1.0000e+00
  1000022  1    1    2    0    0 -1.7148674393e+02 -1.6769361004e+02 +1.1002187055e+03 1.2818712827e+03 6.1252260000e+02 0.0000e+00 -1.0000e+00
       -3  1    1    2    0  502 +1.1655321222e+01 -1.6916518047e+01 +4.0642561431e+01 4.5539454545e+01 9.5000000000e-02 0.0000e+00 -1.0000e+00
<mgrwt>
<rscale>  1 0.65908395E+03</rscale>
<asrwt>0</asrwt>
<pdfrwt beam="1">  1       21 0.22773839E+00 0.65908395E+03</pdfrwt>
<pdfrwt beam="2">  1       -3 0.82286483E-01 0.65908395E+03</pdfrwt>
<totfact> 0.50156380E+00</totfact>
</mgrwt>
</event>
<event>
 5      1 +1.8937969e-08 6.98262000e+02 7.81665300e-03 9.72020900e-02
       21 -1    0    0  501  502 +0.0000000000e+00 +0.0000000000e+00 +1.3429408615e+03 1.3429408615e+03 0.0000000000e+00 0.0000e+00 1.0000e+00
       -3 -1    0    0    0  501 -0.0000000000e+00 -0.0000000000e+00 -5.4769545012e+02 5.4769545836e+02 9.5000000000e-02 0.0000e+00 1.0000e+00
  1000022  1    1    2    0    0 -2.7895089945e+02 +1.3750817978e+02 -1.3098277738e+01 6.8707903781e+02 6.1252260000e+02 0.0000e+00 -1.0000e+00
  1000022  1    1    2    0    0 +3.7761062012e+02 -1.4783998376e+02 +8.2313700390e+02 1.1032610316e+03 6.1252260000e+02 0.0000e+00 -1.0000e+00
       -3  1    1    2    0  502 -9.8659720672e+01 +1.0331803984e+01 -1.4793314796e+01 1.0029625040e+02 9.5000000000e-02 0.0000e+00 -1.0000e+00
<mgrwt>
<rscale>  1 0.69826195E+03</rscale>
<asrwt>0</asrwt>
<pdfrwt beam="1">  1       21 0.20660628E+00 0.69826195E+03</pdfrwt>
<pdfrwt beam="2">  1       -3 0.84260840E-01 0.69826195E+03</pdfrwt>
<totfact> 0.64735287E+00</totfact>
</mgrwt>
</event>
<event>
 5      1 +1.8937969e-08 6.69321200e+02 7.81665300e-03 9.77118500e-02
       -2 -1    0    0    0  501 -0.0000000000e+00 +0.0000000000e+00 +3.5543640560e+02 3.5543640561e+02 2.5000000000e-03 0.0000e+00 1.0000e+00
        2 -1    0    0  502    0 +0.0000000000e+00 -0.0000000000e+00 -1.8768800096e+03 1.8768800096e+03 2.5000000000e-03 0.0000e+00 -1.0000e+00
  1000022  1    1    2    0    0 -2.7289553978e+02 -2.3729755272e+01 -1.4679444658e+02 6.8685342103e+02 6.1252260000e+02 0.0000e+00 1.0000e+00
  1000022  1    1    2    0    0 +2.5248437655e+02 +5.4275585554e+01 -1.2533058859e+03 1.4186802948e+03 6.1252260000e+02 0.0000e+00 -1.0000e+00
       21  1    1    2  502  501 +2.0411163229e+01 -3.0545830282e+01 -1.2134327148e+02 1.2678269939e+02 0.0000000000e+00 0.0000e+00 1.0000e+00
<mgrwt>
<rscale>  1 0.66932123E+03</rscale>
<asrwt>0</asrwt>
<pdfrwt beam="2">  1        2 0.28875076E+00 0.66932123E+03</pdfrwt>
<pdfrwt beam="1">  1       -2 0.54682525E-01 0.66932123E+03</pdfrwt>
<totfact> 0.25649786E+01</totfact>
</mgrwt>
</event>
<event>
 5      1 +1.8937969e-08 8.57130600e+02 7.81665300e-03 9.48081600e-02
       21 -1    0    0  501  502 +0.0000000000e+00 +0.0000000000e+00 +4.6579644151e+02 4.6579644151e+02 0.0000000000e+00 0.0000e+00 1.0000e+00
        3 -1    0    0  502    0 -0.0000000000e+00 -0.0000000000e+00 -2.3233540705e+03 2.3233540724e+03 9.5000000000e-02 0.0000e+00 1.0000e+00
  1000022  1    1    2    0    0 -1.6584370224e+02 +5.6727704794e+02 -1.2594216240e+03 1.5200770195e+03 6.1252260000e+02 0.0000e+00 -1.0000e+00
  1000022  1    1    2    0    0 +1.6877525259e+02 -5.8908139524e+02 -7.3149104693e+02 1.1339158096e+03 6.1252260000e+02 0.0000e+00 -1.0000e+00
        3  1    1    2  501    0 -2.9315503479e+00 +2.1804347305e+01 +1.3335504190e+02 1.3515768485e+02 9.5000000000e-02 0.0000e+00 -1.0000e+00
<mgrwt>
<rscale>  1 0.85713061E+03</rscale>
<asrwt>0</asrwt>
<pdfrwt beam="1">  1       21 0.71660994E-01 0.85713061E+03</pdfrwt>
<pdfrwt beam="2">  1        3 0.35743908E+00 0.85713061E+03</pdfrwt>
<totfact> 0.15067566E+00</totfact>
</mgrwt>
</event>
<event>
 5      1 +1.8937969e-08 8.64564300e+02 7.81665300e-03 9.47099500e-02
        3 -1    0    0  502    0 +0.0000000000e+00 +0.0000000000e+00 +8.0983484617e+02 8.0983485175e+02 9.5000000000e-02 0.0000e+00 1.0000e+00
       -3 -1    0    0    0  501 -0.0000000000e+00 -0.0000000000e+00 -9.5666450247e+02 9.5666450719e+02 9.5000000000e-02 0.0000e+00 1.0000e+00
  1000022  1    1    2    0    0 -8.4965622193e+01 -6.1273034391e+02 -3.3776151864e+01 8.7119595686e+02 6.1252260000e+02 0.0000e+00 1.0000e+00
  1000022  1    1    2    0    0 +6.6133423102e+01 +5.9771671139e+02 -9.1974259609e+01 8.6329722382e+02 6.1252260000e+02 0.0000e+00 1.0000e+00
       21  1    1    2  502  501 +1.8832199092e+01 +1.5013632519e+01 -2.1079244828e+01 3.2006178256e+01 0.0000000000e+00 0.0000e+00 -1.0000e+00
<mgrwt>
<rscale>  1 0.86456431E+03</rscale>
<asrwt>0</asrwt>
<pdfrwt beam="1">  1        3 0.12458998E+00 0.86456431E+03</pdfrwt>
<pdfrwt beam="2">  1       -3 0.14717915E+00 0.86456431E+03</pdfrwt>
<totfact> 0.44991070E-01</totfact>
</mgrwt>
</event>
<event>
 5      1 +1.8937969e-08 8.91936900e+02 7.81665300e-03 9.43571700e-02
        2 -1    0    0  502    0 +0.0000000000e+00 +0.0000000000e+00 +3.1503737166e+03 3.1503737166e+03 2.5000000000e-03 0.0000e+00 -1.0000e+00
       -2 -1    0    0    0  501 -0.0000000000e+00 -0.0000000000e+00 -2.7327176120e+02 2.7327176121e+02 2.5000000000e-03 0.0000e+00 1.0000e+00
  1000022  1    1    2    0    0 -6.2548225721e+02 -1.1796082881e+02 +1.6347971874e+03 1.8581949819e+03 6.1252260000e+02 0.0000e+00 -1.0000e+00
  1000022  1    1    2    0    0 +6.4534983382e+02 +1.6072837828e+02 +1.1965749381e+03 1.4997618270e+03 6.1252260000e+02 0.0000e+00 1.0000e+00
       21  1    1    2  502  501 -1.9867576615e+01 -4.2767549467e+01 +4.5729829858e+01 6.5688668938e+01 0.0000000000e+00 0.0000e+00 -1.0000e+00
<mgrwt>
<rscale>  1 0.89193685E+03</rscale>
<asrwt>0</asrwt>
<pdfrwt beam="1">  1        2 0.48467285E+00 0.89193685E+03</pdfrwt>
<pdfrwt beam="2">  1       -2 0.42041812E-01 0.89193685E+03</pdfrwt>
<totfact> 0.78141961E+00</totfact>
</mgrwt>
</event>
<event>
 5      1 +1.8937969e-08 6.95819000e+02 7.81665300e-03 9.72440900e-02
       21 -1    0    0  501  502 +0.0000000000e+00 +0.0000000000e+00 +4.5337771396e+02 4.5337771396e+02 0.0000000000e+00 0.0000e+00 1.0000e+00
        2 -1    0    0  502    0 -0.0000000000e+00 -0.0000000000e+00 -1.3695893084e+03 1.3695893084e+03 2.5000000000e-03 0.0000e+00 -1.0000e+00
  1000022  1    1    2    0    0 -8.1413749155e+01 +3.1839782876e+02 -5.9130756934e+02 9.1259736630e+02 6.1252260000e+02 0.0000e+00 -1.0000e+00
  1000022  1    1    2    0    0 +6.1572988315e+01 -3.2655360233e+02 -4.1949221668e+02 8.1337945847e+02 6.1252260000e+02 0.0000e+00 1.0000e+00
        2  1    1    2  501    0 +1.9840760840e+01 +8.1557735682e+00 +9.4588191596e+01 9.6990197592e+01 2.5000000000e-03 0.0000e+00 -1.0000e+00
<mgrwt>
<rscale>  1 0.69581896E+03</rscale>
<asrwt>0</asrwt>
<pdfrwt beam="1">  1       21 0.69750419E-01 0.69581896E+03</pdfrwt>
<pdfrwt beam="2">  1        2 0.21070604E+00 0.69581896E+03</pdfrwt>
<totfact> 0.31886091E+02</totfact>
</mgrwt>
</event>
<event>
 5      1 +1.8937969e-08 7.03915700e+02 7.81665300e-03 9.71055900e-02
        3 -1    0    0  502    0 +0.0000000000e+00 +0.0000000000e+00 +1.2858731758e+03 1.2858731793e+03 9.5000000000e-02 0.0000e+00 1.0000e+00
       -3 -1    0    0    0  501 -0.0000000000e+00 -0.0000000000e+00 -9.1185143321e+02 9.1185143816e+02 9.5000000000e-02 0.0000e+00 1.0000e+00
  1000022  1    1    2    0    0 -1.8621217141e+02 +2.7088813573e+02 -4.3340311115e+02 8.1919322942e+02 6.1252260000e+02 0.0000e+00 -1.0000e+00
  1000022  1    1    2    0    0 +1.6569042942e+02 -3.0884007641e+02 +9.7606513408e+02 1.2044594608e+03 6.1252260000e+02 0.0000e+00 -1.0000e+00
       21  1    1    2  502  501 +2.0521741982e+01 +3.7951940676e+01 -1.6864028036e+02 1.7407192724e+02 0.0000000000e+00 0.0000e+00 -1.0000e+00
<mgrwt>
<rscale>  1 0.70391568E+03</rscale>
<asrwt>0</asrwt>
<pdfrwt beam="1">  1        3 0.19782664E+00 0.70391568E+03</pdfrwt>
<pdfrwt beam="2">  1       -3 0.14028484E+00 0.70391568E+03</pdfrwt>
<totfact> 0.15160124E-01</totfact>
</mgrwt>
</event>
<event>
 5      1 +1.8937969e-08 6.51772300e+02 7.81665300e-03 9.80345900e-02
        1 -1    0    0  502    0 +0.0000000000e+00 +0.0000000000e+00 +1.8895613424e+03 1.8895613424e+03 5.0000000000e-03 0.0000e+00 -1.0000e+00
       -1 -1    0    0    0  501 -0.0000000000e+00 -0.0000000000e+00 -3.2863404912e+02 3.2863404915e+02 5.0000000000e-03 0.0000e+00 1.0000e+00
  1000022  1    1    2    0    0 -1.4460969599e+02 -1.6505061328e+02 +1.3174337732e+03 1.4693431700e+03 6.1252260000e+02 0.0000e+00 -1.0000e+00
  1000022  1    1    2    0    0 +1.2438886000e+02 +1.9906142809e+02 +2.6049015009e+02 7.0578827877e+02 6.1252260000e+02 0.0000e+00 1.0000e+00
       21  1    1    2  502  501 +2.0220835995e+01 -3.4010814809e+01 -1.6996630004e+01 4.3063942733e+01 0.0000000000e+00 0.0000e+00 -1.0000e+00
<mgrwt>
<rscale>  1 0.65177226E+03</rscale>
<asrwt>0</asrwt>
<pdfrwt beam="1">  1        1 0.29070175E+00 0.65177226E+03</pdfrwt>
<pdfrwt beam="2">  1       -1 0.50559084E-01 0.65177226E+03</pdfrwt>
<totfact> 0.14724465E+01</totfact>
</mgrwt>
</event>
<event>
 5      1 +1.8937969e-08 8.45171500e+02 7.81665300e-03 9.49684100e-02
       -3 -1    0    0    0  501 -0.0000000000e+00 +0.0000000000e+00 +1.6687230962e+03 1.6687230989e+03 9.5000000000e-02 0.0000e+00 -1.0000e+00
        3 -1    0    0  502    0 +0.0000000000e+00 -0.0000000000e+00 -5.3918796505e+02 5.3918797342e+02 9.5000000000e-02 0.0000e+00 -1.0000e+00
  1000022  1    1    2    0    0 +5.3580781448e+02 +2.5960415713e+02 +8.4693898893e+02 1.2029022899e+03 6.1252260000e+02 0.0000e+00 1.0000e+00
  1000022  1    1    2    0    0 -4.7831659387e+02 -2.9925093995e+02 +3.5421159679e+02 9.0497938089e+02 6.1252260000e+02 0.0000e+00 1.0000e+00
       21  1    1    2  502  501 -5.7491220611e+01 +3.9646782825e+01 -7.1615454600e+01 1.0002940154e+02 0.0000000000e+00 0.0000e+00 -1.0000e+00
<mgrwt>
<rscale>  1 0.84517155E+03</rscale>
<asrwt>0</asrwt>
<pdfrwt beam="2">  1        3 0.82951997E-01 0.84517155E+03</pdfrwt>
<pdfrwt beam="1">  1       -3 0.25672663E+00 0.84517155E+03</pdfrwt>
<totfact> 0.23326872E-01</totfact>
</mgrwt>
</event>
<event>
 5      1 +1.8937969e-08 9.17700900e+02 7.81665300e-03 9.40372100e-02
       -1 -1    0    0    0  501 -0.0000000000e+00 +0.0000000000e+00 +2.3152988638e+03 2.3152988638e+03 5.0000000000e-03 0.0000e+00 1.0000e+00
        1 -1    0    0  502    0 +0.0000000000e+00 -0.0000000000e+00 -4.0173043203e+02 4.0173043206e+02 5.0000000000e-03 0.0000e+00 -1.0000e+00
  1000022  1    1    2    0    0 +5.5205248524e+02 +3.8299628563e+02 +9.5415612813e+02 1.3179703918e+03 6.1252260000e+02 0.0000e+00 1.0000e+00
  1000022  1    1    2    0    0 -5.5925119349e+02 -4.1270901304e+02 +9.8996208713e+02 1.3558390378e+03 6.1252260000e+02 0.0000e+00 -1.0000e+00
       21  1    1    2  502  501 +7.1987082478e+00 +2.9712727411e+01 -3.0549783511e+01 4.3219866302e+01 0.0000000000e+00 0.0000e+00 1.0000e+00
<mgrwt>
<rscale>  1 0.91770088E+03</rscale>
<asrwt>0</asrwt>
<pdfrwt beam="2">  1        1 0.61804682E-01 0.91770088E+03</pdfrwt>
<pdfrwt beam="1">  1       -1 0.35619982E+00 0.91770088E+03</pdfrwt>
<totfact> 0.87174920E-01</totfact>
</mgrwt>
</event>
<event>
 5      1 +1.8937969e-08 8.45218300e+02 7.81665300e-03 9.49677700e-02
        3 -1    0    0  502    0 +0.0000000000e+00 +0.0000000000e+00 +1.6478041810e+03 1.6478041837e+03 9.5000000000e-02 0.0000e+00 1.0000e+00
       -3 -1    0    0    0  501 -0.0000000000e+00 -0.0000000000e+00 -8.4045224407e+02 8.4045224944e+02 9.5000000000e-02 0.0000e+00 1.0000e+00
  1000022  1    1    2    0    0 +1.6919219911e+02 -5.5243327686e+02 +8.7912243936e+02 1.2173120900e+03 6.1252260000e+02 0.0000e+00 -1.0000e+00
  1000022  1    1    2    0    0 -1.4411251697e+02 +5.7340380355e+02 +2.9631206412e+02 9.0141284345e+02 6.1252260000e+02 0.0000e+00 -1.0000e+00
       21  1    1    2  502  501 -2.5079682140e+01 -2.0970526694e+01 -3.6808256657e+02 3.6953149969e+02 0.0000000000e+00 0.0000e+00 1.0000e+00
<mgrwt>
<rscale>  1 0.84521833E+03</rscale>
<asrwt>0</asrwt>
<pdfrwt beam="1">  1        3 0.25350833E+00 0.84521833E+03</pdfrwt>
<pdfrwt beam="2">  1       -3 0.12930035E+00 0.84521833E+03</pdfrwt>
<totfact> 0.85618243E-02</totfact>
</mgrwt>
</event>
<event>
 5      1 +1.8937969e-08 8.27422500e+02 7.81665300e-03 9.52115100e-02
        3 -1    0    0  502    0 +0.0000000000e+00 +0.0000000000e+00 +2.2830906330e+03 2.2830906350e+03 9.5000000000e-02 0.0000e+00 -1.0000e+00
       -3 -1    0    0    0  501 -0.0000000000e+00 -0.0000000000e+00 -5.2811232958e+02 5.2811233813e+02 9.5000000000e-02 0.0000e+00 -1.0000e+00
  1000022  1    1    2    0    0 +2.3469990078e+02 +5.2530262008e+02 +7.5487733034e+02 1.1296240992e+03 6.1252260000e+02 0.0000e+00 1.0000e+00
  1000022  1    1    2    0    0 -1.5756750724e+02 -5.2465814302e+02 +1.5905636312e+02 8.3700450927e+02 6.1252260000e+02 0.0000e+00 1.0000e+00
       21  1    1    2  502  501 -7.7132393534e+01 -6.4447705890e-01 +8.4104460997e+02 8.4457436466e+02 0.0000000000e+00 0.0000e+00 -1.0000e+00
<mgrwt>
<rscale>  1 0.82742248E+03</rscale>
<asrwt>0</asrwt>
<pdfrwt beam="1">  1        3 0.35124471E+00 0.82742248E+03</pdfrwt>
<pdfrwt beam="2">  1       -3 0.81248052E-01 0.82742248E+03</pdfrwt>
<totfact> 0.75175785E-02</totfact>
</mgrwt>
</event>
<event>
 5      1 +1.8937969e-08 6.12723700e+02 7.81665300e-03 9.87935400e-02
        2 -1    0    0  502    0 +0.0000000000e+00 +0.0000000000e+00 +1.3641374912e+03 1.3641374912e+03 2.5000000000e-03 0.0000e+00 1.0000e+00
       -2 -1    0    0    0  501 -0.0000000000e+00 -0.0000000000e+00 -3.6080830386e+02 3.6080830387e+02 2.5000000000e-03 0.0000e+00 -1.0000e+00
  1000022  1    1    2    0    0 +6.5408476491e+00 +2.4192152150e+01 +2.7428545284e+02 6.7159845746e+02 6.1252260000e+02 0.0000e+00 -1.0000e+00
  1000022  1    1    2    0    0 -2.0589734524e+01 +1.3597054653e+01 +7.7763630787e+02 9.9020754385e+02 6.1252260000e+02 0.0000e+00 1.0000e+00
       21  1    1    2  502  501 +1.4048886875e+01 -3.7789206803e+01 -4.8592573356e+01 6.3139793780e+01 0.0000000000e+00 0.0000e+00 -1.0000e+00
<mgrwt>
<rscale>  1 0.61272375E+03</rscale>
<asrwt>0</asrwt>
<pdfrwt beam="1">  1        2 0.20986731E+00 0.61272375E+03</pdfrwt>
<pdfrwt beam="2">  1       -2 0.55508969E-01 0.61272375E+03</pdfrwt>
<totfact> 0.47934164E+01</totfact>
</mgrwt>
</event>
<event>
 5      1 +1.8937969e-08 8.67446800e+02 7.81665300e-03 9.46721500e-02
       -3 -1    0    0    0  501 -0.0000000000e+00 +0.0000000000e+00 +6.2385977982e+02 6.2385978706e+02 9.5000000000e-02 0.0000e+00 -1.0000e+00
        3 -1    0    0  502    0 +0.0000000000e+00 -0.0000000000e+00 -1.2870509569e+03 1.2870509604e+03 9.5000000000e-02 0.0000e+00 -1.0000e+00
  1000022  1    1    2    0    0 -1.4262379324e+02 -5.8767114799e+02 -1.7628389046e+02 8.7861189961e+02 6.1252260000e+02 0.0000e+00 1.0000e+00
  1000022  1    1    2    0    0 +1.6811375464e+02 +5.9808754138e+02 -4.9565253116e+02 1.0034073494e+03 6.1252260000e+02 0.0000e+00 1.0000e+00
       21  1    1    2  502  501 -2.5489961401e+01 -1.0416393387e+01 +8.7452445180e+00 2.8891498492e+01 0.0000000000e+00 0.0000e+00 1.0000e+00
<mgrwt>
<rscale>  1 0.86744684E+03</rscale>
<asrwt>0</asrwt>
<pdfrwt beam="2">  1        3 0.19800784E+00 0.86744684E+03</pdfrwt>
<pdfrwt beam="1">  1       -3 0.95978429E-01 0.86744684E+03</pdfrwt>
<totfact> 0.37589662E-01</totfact>
</mgrwt>
</event>
<event>
 5      1 +1.8937969e-08 7.96415000e+02 7.81665300e-03 9.56522100e-02
       -3 -1    0    0    0  501 -0.0000000000e+00 +0.0000000000e+00 +3.4270476080e+03 3.4270476093e+03 9.5000000000e-02 0.0000e+00 -1.0000e+00
        3 -1    0    0  502    0 +0.0000000000e+00 -0.0000000000e+00 -2.7236426365e+02 2.7236428021e+02 9.5000000000e-02 0.0000e+00 -1.0000e+00
  1000022  1    1    2    0    0 -5.3495465786e+02 -1.7678178048e+02 +9.4230949255e+02 1.2572030063e+03 6.1252260000e+02 0.0000e+00 1.0000e+00
  1000022  1    1    2    0    0 +4.2483893922e+02 +2.4114559933e+02 +2.1711203135e+03 2.3081565535e+03 6.1252260000e+02 0.0000e+00 1.0000e+00
       21  1    1    2  502  501 +1.1011571863e+02 -6.4363818847e+01 +4.1253538295e+01 1.3405232967e+02 0.0000000000e+00 0.0000e+00 1.0000e+00
<mgrwt>
<rscale>  1 0.79641502E+03</rscale>
<asrwt>0</asrwt>
<pdfrwt beam="2">  1        3 0.41902193E-01 0.79641502E+03</pdfrwt>
<pdfrwt beam="1">  1       -3 0.52723813E+00 0.79641502E+03</pdfrwt>
<totfact> 0.33744953E-02</totfact>
</mgrwt>
</event>
<event>
 5      1 +1.8937969e-08 7.75330500e+02 7.81665300e-03 9.59642800e-02
       -3 -1    0    0    0  501 -0.0000000000e+00 +0.0000000000e+00 +9.6012933537e+02 9.6012934007e+02 9.5000000000e-02 0.0000e+00 1.0000e+00
        3 -1    0    0  502    0 +0.0000000000e+00 -0.0000000000e+00 -8.9850955134e+02 8.9850955636e+02 9.5000000000e-02 0.0000e+00 1.0000e+00
  1000022  1    1    2    0    0 -4.0615784311e+01 +4.9745626779e+02 -3.0609443818e+02 8.4734297714e+02 6.1252260000e+02 0.0000e+00 -1.0000e+00
  1000022  1    1    2    0    0 +3.7151953223e+01 -4.6497462160e+02 +4.7127927904e+02 9.0270136851e+02 6.1252260000e+02 0.0000e+00 -1.0000e+00
       21  1    1    2  502  501 +3.4638310881e+00 -3.2481646199e+01 -1.0356505682e+02 1.0859455078e+02 0.0000000000e+00 0.0000e+00 1.0000e+00
<mgrwt>
<rscale>  1 0.77533046E+03</rscale>
<asrwt>0</asrwt>
<pdfrwt beam="2">  1        3 0.13823224E+00 0.77533046E+03</pdfrwt>
<pdfrwt beam="1">  1       -3 0.14771221E+00 0.77533046E+03</pdfrwt>
<totfact> 0.34560947E-01</totfact>
</mgrwt>
</event>
<event>
 5      1 +1.8937969e-08 7.51731800e+02 7.81665300e-03 9.63263700e-02
       -2 -1    0    0    0  501 -0.0000000000e+00 +0.0000000000e+00 +1.5175039135e+03 1.5175039135e+03 2.5000000000e-03 0.0000e+00 1.0000e+00
        2 -1    0    0  502    0 +0.0000000000e+00 -0.0000000000e+00 -4.2077081033e+02 4.2077081034e+02 2.5000000000e-03 0.0000e+00 -1.0000e+00
  1000022  1    1    2    0    0 -1.2751102738e+02 -4.2231833507e+02 +2.8289125330e+02 8.0611614234e+02 6.1252260000e+02 0.0000e+00 -1.0000e+00
  1000022  1    1    2    0    0 +9.6023986875e+01 +4.1667197309e+02 +7.3906636744e+02 1.0508278499e+03 6.1252260000e+02 0.0000e+00 1.0000e+00
       21  1    1    2  502  501 +3.1487040505e+01 +5.6463619791e+00 +7.4775482456e+01 8.1330731583e+01 0.0000000000e+00 0.0000e+00 -1.0000e+00
<mgrwt>
<rscale>  1 0.75173180E+03</rscale>
<asrwt>0</asrwt>
<pdfrwt beam="2">  1        2 0.64733970E-01 0.75173180E+03</pdfrwt>
<pdfrwt beam="1">  1       -2 0.23346214E+00 0.75173180E+03</pdfrwt>
<totfact> 0.62586613E+00</totfact>
</mgrwt>
</event>
<event>
 5      1 +1.8937969e-08 6.20012000e+02 7.81665300e-03 9.86473600e-02
       -1 -1    0    0    0  501 -0.0000000000e+00 +0.0000000000e+00 +5.8890834360e+02 5.8890834362e+02 5.0000000000e-03 0.0000e+00 1.0000e+00
        1 -1    0    0  502    0 +0.0000000000e+00 -0.0000000000e+00 -2.5833881861e+03 2.5833881861e+03 5.0000000000e-03 0.0000e+00 -1.0000e+00
  1000022  1    1    2    0    0 +1.2482554881e+02 +6.7101373821e+01 -1.8808870589e+03 1.9831802933e+03 6.1252260000e+02 0.0000e+00 -1.0000e+00
  1000022  1    1    2    0    0 +1.4769655558e+02 -9.5849210461e+01 -4.3130400965e+02 7.6955079619e+02 6.1252260000e+02 0.0000e+00 1.0000e+00
       21  1    1    2  502  501 -2.7252210439e+02 +2.8747836640e+01 +3.1771122602e+02 4.1956544023e+02 0.0000000000e+00 0.0000e+00 1.0000e+00
<mgrwt>
<rscale>  1 0.62001196E+03</rscale>
<asrwt>0</asrwt>
<pdfrwt beam="2">  1        1 0.39744433E+00 0.62001196E+03</pdfrwt>
<pdfrwt beam="1">  1       -1 0.90601285E-01 0.62001196E+03</pdfrwt>
<totfact> 0.15519789E+00</totfact>
</mgrwt>
</event>
<event>
 5      1 +1.8937969e-08 6.27221600e+02 7.81665300e-03 9.85048600e-02
        2 -1    0    0  502    0 +0.0000000000e+00 +0.0000000000e+00 +3.0605422397e+03 3.0605422397e+03 2.5000000000e-03 0.0000e+00 -1.0000e+00
       -2 -1    0    0    0  501 -0.0000000000e+00 -0.0000000000e+00 -1.9695052575e+02 1.9695052577e+02 2.5000000000e-03 0.0000e+00 1.0000e+00
  1000022  1    1    2    0    0 -5.9649039408e+01 -1.0242137421e+02 +5.2968833744e+02 8.1841420816e+02 6.1252260000e+02 0.0000e+00 1.0000e+00
  1000022  1    1    2    0    0 +8.1914074724e+01 +1.1337427801e+02 +2.3308902247e+03 2.4140830180e+03 6.1252260000e+02 0.0000e+00 -1.0000e+00
       21  1    1    2  502  501 -2.2265035316e+01 -1.0952903799e+01 +3.0131517314e+00 2.4995539254e+01 0.0000000000e+00 0.0000e+00 1.0000e+00
<mgrwt>
<rscale>  1 0.62722159E+03</rscale>
<asrwt>0</asrwt>
<pdfrwt beam="1">  1        2 0.47085260E+00 0.62722159E+03</pdfrwt>
<pdfrwt beam="2">  1       -2 0.30300084E-01 0.62722159E+03</pdfrwt>
<totfact> 0.17435207E+01</totfact>
</mgrwt>
</event>
<event>
 5      1 +1.8937969e-08 8.70448600e+02 7.81665300e-03 9.46329500e-02
       -3 -1    0    0    0  501 -0.0000000000e+00 +0.0000000000e+00 +1.4795091448e+03 1.4795091479e+03 9.5000000000e-02 0.0000e+00 -1.0000e+00
        3 -1    0    0  502    0 +0.0000000000e+00 -0.0000000000e+00 -6.5855522338e+02 6.5855523023e+02 9.5000000000e-02 0.0000e+00 -1.0000e+00
  1000022  1    1    2    0    0 -2.2813148181e+02 +6.2261140949e+02 +3.9002606274e+02 9.8335812670e+02 6.1252260000e+02 0.0000e+00 1.0000e+00
  1000022  1    1    2    0    0 +2.3707193485e+02 -5.3607970987e+02 +1.5045074198e+02 8.6104815133e+02 6.1252260000e+02 0.0000e+00 1.0000e+00
       21  1    1    2  502  501 -8.9404530487e+00 -8.6531699621e+01 +2.8047711673e+02 2.9365810009e+02 0.0000000000e+00 0.0000e+00 -1.0000e+00
<mgrwt>
<rscale>  1 0.87044864E+03</rscale>
<asrwt>0</asrwt>
<pdfrwt beam="2">  1        3 0.10131619E+00 0.87044864E+03</pdfrwt>
<pdfrwt beam="1">  1       -3 0.22761679E+00 0.87044864E+03</pdfrwt>
<totfact> 0.21677942E-01</totfact>
</mgrwt>
</event>
<event>
 5      1 +1.8937969e-08 7.59899200e+02 7.81665300e-03 9.61994700e-02
        3 -1    0    0  502    0 +0.0000000000e+00 +0.0000000000e+00 +1.3779537721e+03 1.3779537754e+03 9.5000000000e-02 0.0000e+00 -1.0000e+00
       -3 -1    0    0    0  501 -0.0000000000e+00 -0.0000000000e+00 -8.5347318563e+02 8.5347319092e+02 9.5000000000e-02 0.0000e+00 -1.0000e+00
  1000022  1    1    2    0    0 -5.4108693174e+02 -4.5239578995e+01 +6.1823893793e+02 1.0257801943e+03 6.1252260000e+02 0.0000e+00 -1.0000e+00
  1000022  1    1    2    0    0 +3.5560811608e+02 -2.8378075661e+02 -2.4115564082e+02 8.0020536655e+02 6.1252260000e+02 0.0000e+00 -1.0000e+00
       21  1    1    2  502  501 +1.8547881566e+02 +3.2902033560e+02 +1.4739728935e+02 4.0544140539e+02 0.0000000000e+00 0.0000e+00 1.0000e+00
<mgrwt>
<rscale>  1 0.75989918E+03</rscale>
<asrwt>0</asrwt>
<pdfrwt beam="1">  1        3 0.21199289E+00 0.75989918E+03</pdfrwt>
<pdfrwt beam="2">  1       -3 0.13130357E+00 0.75989918E+03</pdfrwt>
<totfact> 0.14557873E-01</totfact>
</mgrwt>
</event>
<event>
 5      1 +1.8937969e-08 8.73389500e+02 7.81665300e-03 9.45947100e-02
        3 -1    0    0  502    0 +0.0000000000e+00 +0.0000000000e+00 +1.3251287652e+03 1.3251287686e+03 9.5000000000e-02 0.0000e+00 -1.0000e+00
       -3 -1    0    0    0  501 -0.0000000000e+00 -0.0000000000e+00 -6.3713094107e+02 6.3713094815e+02 9.5000000000e-02 0.0000e+00 -1.0000e+00
  1000022  1    1    2    0    0 +3.6307326118e+02 -5.3121082835e+02 +3.9271259765e+02 9.7129514413e+02 6.1252260000e+02 0.0000e+00 1.0000e+00
  1000022  1    1    2    0    0 -3.4574002029e+02 +4.9785943603e+02 +1.9451667287e+02 8.8341431459e+02 6.1252260000e+02 0.0000e+00 1.0000e+00
       21  1    1    2  502  501 -1.7333240889e+01 +3.3351392317e+01 +1.0076855365e+02 1.0755025808e+02 0.0000000000e+00 0.0000e+00 1.0000e+00
<mgrwt>
<rscale>  1 0.87338950E+03</rscale>
<asrwt>0</asrwt>
<pdfrwt beam="1">  1        3 0.20386596E+00 0.87338950E+03</pdfrwt>
<pdfrwt beam="2">  1       -3 0.98020146E-01 0.87338950E+03</pdfrwt>
<totfact> 0.32863750E-01</totfact>
</mgrwt>
</event>
<event>
 5      1 +1.8937969e-08 9.03971400e+02 7.81665300e-03 9.42063100e-02
       -3 -1    0    0    0  501 -0.0000000000e+00 +0.0000000000e+00 +7.0517241275e+02 7.0517241914e+02 9.5000000000e-02 0.0000e+00 1.0000e+00
        3 -1    0    0  502    0 +0.0000000000e+00 -0.0000000000e+00 -1.9828909896e+03 1.9828909918e+03 9.5000000000e-02 0.0000e+00 -1.0000e+00
  1000022  1    1    2    0    0 +6.4018909971e+02 +2.5892887363e+02 -1.3528425651e+03 1.6377585861e+03 6.1252260000e+02 0.0000e+00 -1.0000e+00
  1000022  1    1    2    0    0 -6.1516178342e+02 -2.3529112258e+02 +1.9947059586e+02 9.2128084007e+02 6.1252260000e+02 0.0000e+00 1.0000e+00
       21  1    1    2  502  501 -2.5027316286e+01 -2.3637751048e+01 -1.2434660758e+02 1.2902398479e+02 0.0000000000e+00 0.0000e+00 1.0000e+00
<mgrwt>
<rscale>  1 0.90397141E+03</rscale>
<asrwt>0</asrwt>
<pdfrwt beam="2">  1        3 0.30506015E+00 0.90397141E+03</pdfrwt>
<pdfrwt beam="1">  1       -3 0.10848807E+00 0.90397141E+03</pdfrwt>
<totfact> 0.67598680E-02</totfact>
</mgrwt>
</event>
<event>
 5      1 +1.8937969e-08 7.73547600e+02 7.81665300e-03 9.59911500e-02
        3 -1    0    0  502    0 +0.0000000000e+00 +0.0000000000e+00 +5.1422518160e+02 5.1422519038e+02 9.5000000000e-02 0.0000e+00 -1.0000e+00
       -3 -1    0    0    0  501 -0.0000000000e+00 -0.0000000000e+00 -1.8577298040e+03 1.8577298064e+03 9.5000000000e-02 0.0000e+00 -1.0000e+00
  1000022  1    1    2    0    0 -4.9008695250e+02 +7.5128090828e+01 -8.2337086288e+02 1.1397161771e+03 6.1252260000e+02 0.0000e+00 1.0000e+00
  1000022  1    1    2    0    0 +4.6322963229e+02 +7.6686749737e+01 -9.2064945327e+01 7.7725313733e+02 6.1252260000e+02 0.0000e+00 1.0000e+00
       21  1    1    2  502  501 +2.6857320217e+01 -1.5181484056e+02 -4.2806881419e+02 4.5498568236e+02 0.0000000000e+00 0.0000e+00 -1.0000e+00
<mgrwt>
<rscale>  1 0.77354762E+03</rscale>
<asrwt>0</asrwt>
<pdfrwt beam="1">  1        3 0.79111568E-01 0.77354762E+03</pdfrwt>
<pdfrwt beam="2">  1       -3 0.28580458E+00 0.77354762E+03</pdfrwt>
<totfact> 0.17914879E-01</totfact>
</mgrwt>
</event>
<event>
 5      1 +1.8937969e-08 1.13786800e+03 7.81665300e-03 9.16904900e-02
        1 -1    0    0  502    0 +0.0000000000e+00 +0.0000000000e+00 +3.5015171039e+03 3.5015171039e+03 5.0000000000e-03 0.0000e+00 -1.0000e+00
       -1 -1    0    0    0  501 -0.0000000000e+00 -0.0000000000e+00 -8.3637612495e+02 8.3637612496e+02 5.0000000000e-03 0.0000e+00 1.0000e+00
  1000022  1    1    2    0    0 -9.5139551192e+02 -4.3080549256e+01 -1.3739418264e+02 1.1406447522e+03 6.1252260000e+02 0.0000e+00 1.0000e+00
  1000022  1    1    2    0    0 +9.6018868897e+02 +3.4791069064e-01 +2.8862567620e+03 3.1028413545e+03 6.1252260000e+02 0.0000e+00 -1.0000e+00
       21  1    1    2  502  501 -8.7931770479e+00 +4.2732638565e+01 -8.3721600340e+01 9.4407122215e+01 0.0000000000e+00 0.0000e+00 -1.0000e+00
<mgrwt>
<rscale>  1 0.11378680E+04</rscale>
<asrwt>0</asrwt>
<pdfrwt beam="1">  1        1 0.53869494E+00 0.11378680E+04</pdfrwt>
<pdfrwt beam="2">  1       -1 0.12867325E+00 0.11378680E+04</pdfrwt>
<totfact> 0.13136638E-01</totfact>
</mgrwt>
</event>
<event>
 5      1 +1.8937969e-08 8.08101800e+02 7.81665300e-03 9.54836400e-02
        3 -1    0    0  502    0 -0.0000000000e+00 +0.0000000000e+00 +2.0130037996e+03 2.0130038019e+03 9.5000000000e-02 0.0000e+00 -1.0000e+00
       21 -1    0    0  501  502 +0.0000000000e+00 -0.0000000000e+00 -4.1222952475e+02 4.1222952475e+02 0.0000000000e+00 0.0000e+00 -1.0000e+00
  1000022  1    1    2    0    0 -4.7619275147e+02 -1.7360582336e+02 +1.1674626873e+03 1.4124629483e+03 6.1252260000e+02 0.0000e+00 1.0000e+00
  1000022  1    1    2    0    0 +5.3396224311e+02 +2.0785132124e+02 +3.5826112306e+02 9.1205965628e+02 6.1252260000e+02 0.0000e+00 1.0000e+00
        3  1    1    2  501    0 -5.7769491642e+01 -3.4245497878e+01 +7.5050464471e+01 1.0071072203e+02 9.5000000000e-02 0.0000e+00 1.0000e+00
<mgrwt>
<rscale>  1 0.80810180E+03</rscale>
<asrwt>0</asrwt>
<pdfrwt beam="2">  1       21 0.63419928E-01 0.80810180E+03</pdfrwt>
<pdfrwt beam="1">  1        3 0.30969289E+00 0.80810180E+03</pdfrwt>
<totfact> 0.36310418E+00</totfact>
</mgrwt>
</event>
<event>
 5      1 +1.8937969e-08 8.10794600e+02 7.81665300e-03 9.54452200e-02
       -3 -1    0    0    0  501 -0.0000000000e+00 +0.0000000000e+00 +5.7846822243e+02 5.7846823024e+02 9.5000000000e-02 0.0000e+00 1.0000e+00
        3 -1    0    0  502    0 +0.0000000000e+00 -0.0000000000e+00 -1.2468890011e+03 1.2468890047e+03 9.5000000000e-02 0.0000e+00 1.0000e+00
  1000022  1    1    2    0    0 +3.7283832382e+02 +4.0279968954e+02 -3.4621690515e+02 8.9235984139e+02 6.1252260000e+02 0.0000e+00 -1.0000e+00
  1000022  1    1    2    0    0 -3.4571358903e+02 -3.8118632801e+02 -3.6380134524e+02 8.7883801500e+02 6.1252260000e+02 0.0000e+00 -1.0000e+00
       21  1    1    2  502  501 -2.7124734790e+01 -2.1613361525e+01 +4.1597471719e+01 5.4159378571e+01 0.0000000000e+00 0.0000e+00 -1.0000e+00
<mgrwt>
<rscale>  1 0.81079462E+03</rscale>
<asrwt>0</asrwt>
<pdfrwt beam="2">  1        3 0.19182908E+00 0.81079462E+03</pdfrwt>
<pdfrwt beam="1">  1       -3 0.88995113E-01 0.81079462E+03</pdfrwt>
<totfact> 0.49198906E-01</totfact>
</mgrwt>
</event>
<event>
 5      1 +1.8937969e-08 7.57884900e+02 7.81665300e-03 9.62306100e-02
        3 -1    0    0  502    0 +0.0000000000e+00 +0.0000000000e+00 +5.5984029370e+02 5.5984030176e+02 9.5000000000e-02 0.0000e+00 1.0000e+00
       -3 -1    0    0    0  501 -0.0000000000e+00 -0.0000000000e+00 -2.0171066803e+03 2.0171066826e+03 9.5000000000e-02 0.0000e+00 1.0000e+00
  1000022  1    1    2    0    0 +1.5453491203e+02 -4.0920976099e+02 +8.7267250119e+01 7.5771576200e+02 6.1252260000e+02 0.0000e+00 -1.0000e+00
  1000022  1    1    2    0    0 -1.4682823348e+02 +4.5280266907e+02 -9.6561393497e+02 1.2386214087e+03 6.1252260000e+02 0.0000e+00 -1.0000e+00
       21  1    1    2  502  501 -7.7066785579e+00 -4.3592908073e+01 -5.7891970179e+02 5.8060981360e+02 0.0000000000e+00 0.0000e+00 -1.0000e+00
<mgrwt>
<rscale>  1 0.75788490E+03</rscale>
<asrwt>0</asrwt>
<pdfrwt beam="1">  1        3 0.86129278E-01 0.75788490E+03</pdfrwt>
<pdfrwt beam="2">  1       -3 0.31032410E+00 0.75788490E+03</pdfrwt>
<totfact> 0.10838555E-01</totfact>
</mgrwt>
</event>
<event>
 5      1 +1.8937969e-08 7.47146400e+02 7.81665300e-03 9.63983800e-02
        2 -1    0    0  502    0 +0.0000000000e+00 +0.0000000000e+00 +7.8666529416e+02 7.8666529417e+02 2.5000000000e-03 0.0000e+00 -1.0000e+00
       -2 -1    0    0    0  501 -0.0000000000e+00 -0.0000000000e+00 -8.9641581963e+02 8.9641581964e+02 2.5000000000e-03 0.0000e+00 1.0000e+00
  1000022  1    1    2    0    0 -2.9217653579e+02 -3.9332914953e+02 -2.8601674908e+02 8.3490386524e+02 6.1252260000e+02 0.0000e+00 1.0000e+00
  1000022  1    1    2    0    0 +2.4617387452e+02 +3.1082846131e+02 +1.8664042138e+02 7.5314971371e+02 6.1252260000e+02 0.0000e+00 -1.0000e+00
       21  1    1    2  502  501 +4.6002661272e+01 +8.2500688218e+01 -1.0374197774e+01 9.5027534852e+01 0.0000000000e+00 0.0000e+00 -1.0000e+00
<mgrwt>
<rscale>  1 0.74714636E+03</rscale>
<asrwt>0</asrwt>
<pdfrwt beam="1">  1        2 0.12102543E+00 0.74714636E+03</pdfrwt>
<pdfrwt beam="2">  1       -2 0.13791013E+00 0.74714636E+03</pdfrwt>
<totfact> 0.13359742E+01</totfact>
</mgrwt>
</event>
<event>
 5      1 +1.8937969e-08 8.01022100e+02 7.81665300e-03 9.55853900e-02
       -3 -1    0    0    0  501 -0.0000000000e+00 +0.0000000000e+00 +4.5477798173e+02 4.5477799165e+02 9.5000000000e-02 0.0000e+00 1.0000e+00
        3 -1    0    0  502    0 +0.0000000000e+00 -0.0000000000e+00 -1.5486459143e+03 1.5486459172e+03 9.5000000000e-02 0.0000e+00 1.0000e+00
  1000022  1    1    2    0    0 +2.0520541595e+02 +4.6389018886e+02 -7.3497350894e+02 1.0829004407e+03 6.1252260000e+02 0.0000e+00 -1.0000e+00
  1000022  1    1    2    0    0 -1.8954839979e+02 -4.9511470908e+02 -3.5775946402e+02 8.8557492095e+02 6.1252260000e+02 0.0000e+00 -1.0000e+00
       21  1    1    2  502  501 -1.5657016162e+01 +3.1224520220e+01 -1.1349595713e+00 3.4948547199e+01 0.0000000000e+00 0.0000e+00 -1.0000e+00
<mgrwt>
<rscale>  1 0.80102207E+03</rscale>
<asrwt>0</asrwt>
<pdfrwt beam="2">  1        3 0.23825322E+00 0.80102207E+03</pdfrwt>
<pdfrwt beam="1">  1       -3 0.69965845E-01 0.80102207E+03</pdfrwt>
<totfact> 0.44071333E-01</totfact>
</mgrwt>
</event>
<event>
 5      1 +1.8937969e-08 7.14589200e+02 7.81665300e-03 9.69260300e-02
       -3 -1    0    0    0  501 -0.0000000000e+00 +0.0000000000e+00 +5.9110365313e+02 5.9110366076e+02 9.5000000000e-02 0.0000e+00 1.0000e+00
        3 -1    0    0  502    0 +0.0000000000e+00 -0.0000000000e+00 -1.5925804361e+03 1.5925804389e+03 9.5000000000e-02 0.0000e+00 1.0000e+00
  1000022  1    1    2    0    0 +1.6878018403e+02 +3.2615582157e+02 +1.9338346446e+02 7.3989558068e+02 6.1252260000e+02 0.0000e+00 -1.0000e+00
  1000022  1    1    2    0    0 -1.9312881323e+02 -3.1767229147e+02 -9.1222533748e+02 1.1599799244e+03 6.1252260000e+02 0.0000e+00 -1.0000e+00
       21  1    1    2  502  501 +2.4348629195e+01 -8.4835301043e+00 -2.8263490995e+02 2.8380859457e+02 0.0000000000e+00 0.0000e+00 -1.0000e+00
<mgrwt>
<rscale>  1 0.71458915E+03</rscale>
<asrwt>0</asrwt>
<pdfrwt beam="2">  1        3 0.24501237E+00 0.71458915E+03</pdfrwt>
<pdfrwt beam="1">  1       -3 0.90939025E-01 0.71458915E+03</pdfrwt>
<totfact> 0.22541011E-01</totfact>
</mgrwt>
</event>
<event>
 5      1 +1.8937969e-08 9.56347600e+02 7.81665300e-03 9.35776200e-02
       -2 -1    0    0    0  501 -0.0000000000e+00 +0.0000000000e+00 +5.5862075229e+02 5.5862075229e+02 2.5000000000e-03 0.0000e+00 -1.0000e+00
        2 -1    0    0  502    0 +0.0000000000e+00 -0.0000000000e+00 -2.0175668242e+03 2.0175668242e+03 2.5000000000e-03 0.0000e+00 1.0000e+00
  1000022  1    1    2    0    0 -2.3896014767e+02 +6.7334183756e+02 -3.8368725425e+02 1.0163124652e+03 6.1252260000e+02 0.0000e+00 -1.0000e+00
  1000022  1    1    2    0    0 +2.3845922280e+02 -7.0651190725e+02 -1.1360779872e+03 1.4905968619e+03 6.1252260000e+02 0.0000e+00 1.0000e+00
       21  1    1    2  502  501 +5.0092487230e-01 +3.3170069683e+01 +6.0819169584e+01 6.9278249382e+01 0.0000000000e+00 0.0000e+00 1.0000e+00
<mgrwt>
<rscale>  1 0.95634764E+03</rscale>
<asrwt>0</asrwt>
<pdfrwt beam="2">  1        2 0.31039489E+00 0.95634764E+03</pdfrwt>
<pdfrwt beam="1">  1       -2 0.85941655E-01 0.95634764E+03</pdfrwt>
<totfact> 0.77300826E+00</totfact>
</mgrwt>
</event>
<event>
 5      1 +1.8937969e-08 6.94504500e+02 7.81665300e-03 9.72667700e-02
       21 -1    0    0  501  502 +0.0000000000e+00 +0.0000000000e+00 +6.1748866159e+02 6.1748866159e+02 0.0000000000e+00 0.0000e+00 1.0000e+00
        3 -1    0    0  502    0 -0.0000000000e+00 -0.0000000000e+00 -1.1117906267e+03 1.1117906308e+03 9.5000000000e-02 0.0000e+00 1.0000e+00
  1000022  1    1    2    0    0 -1.1644345862e+02 +3.2320554413e+02 -6.1017939372e+02 9.3033527873e+02 6.1252260000e+02 0.0000e+00 -1.0000e+00
  1000022  1    1    2    0    0 +5.5073303236e+01 -2.8937286755e+02 +1.9717166820e+01 6.7995766587e+02 6.1252260000e+02 0.0000e+00 -1.0000e+00
        3  1    1    2  501    0 +6.1370155388e+01 -3.3832676577e+01 +9.6160261790e+01 1.1898634774e+02 9.5000000000e-02 0.0000e+00 -1.0000e+00
<mgrwt>
<rscale>  1 0.69450445E+03</rscale>
<asrwt>0</asrwt>
<pdfrwt beam="1">  1       21 0.94998257E-01 0.69450445E+03</pdfrwt>
<pdfrwt beam="2">  1        3 0.17104471E+00 0.69450445E+03</pdfrwt>
<totfact> 0.95185076E+00</totfact>
</mgrwt>
</event>
<event>
 5      1 +1.8937969e-08 6.64745300e+02 7.81665300e-03 9.77949700e-02
       -3 -1    0    0    0  501 -0.0000000000e+00 +0.0000000000e+00 +6.9498056135e+02 6.9498056784e+02 9.5000000000e-02 0.0000e+00 1.0000e+00
        3 -1    0    0  502    0 +0.0000000000e+00 -0.0000000000e+00 -1.1363468508e+03 1.1363468547e+03 9.5000000000e-02 0.0000e+00 1.0000e+00
  1000022  1    1    2    0    0 +1.5705980520e+02 -2.2727426502e+02 -7.6785952322e+02 1.0203497228e+03 6.1252260000e+02 0.0000e+00 -1.0000e+00
  1000022  1    1    2    0    0 -1.2583769836e+02 +2.2124188287e+02 +3.6811293594e+02 7.5860013590e+02 6.1252260000e+02 0.0000e+00 -1.0000e+00
       21  1    1    2  502  501 -3.1222106840e+01 +6.0323821445e+00 -4.1619702128e+01 5.2377563852e+01 0.0000000000e+00 0.0000e+00 -1.0000e+00
<mgrwt>
<rscale>  1 0.66474527E+03</rscale>
<asrwt>0</asrwt>
<pdfrwt beam="2">  1        3 0.17482259E+00 0.66474527E+03</pdfrwt>
<pdfrwt beam="1">  1       -3 0.10692009E+00 0.66474527E+03</pdfrwt>
<totfact> 0.41879178E-01</totfact>
</mgrwt>
</event>
<event>
 5      1 +1.8937969e-08 6.33780800e+02 7.81665300e-03 9.83769800e-02
       21 -1    0    0  501  502 +0.0000000000e+00 +0.0000000000e+00 +4.5707962640e+02 4.5707962640e+02 0.0000000000e+00 0.0000e+00 -1.0000e+00
        2 -1    0    0  502    0 -0.0000000000e+00 -0.0000000000e+00 -2.0421180487e+03 2.0421180487e+03 2.5000000000e-03 0.0000e+00 -1.0000e+00
  1000022  1    1    2    0    0 -1.3894324560e+02 -4.9238561947e+01 -1.4741467741e+03 1.6031289121e+03 6.1252260000e+02 0.0000e+00 -1.0000e+00
  1000022  1    1    2    0    0 +1.3889974461e+02 +2.1862345333e+02 -2.1296807745e+02 6.9830415359e+02 6.1252260000e+02 0.0000e+00 1.0000e+00
        2  1    1    2  501    0 +4.3500995546e-02 -1.6938489138e+02 +1.0207642930e+02 1.9776460944e+02 2.5000000000e-03 0.0000e+00 -1.0000e+00
<mgrwt>
<rscale>  1 0.63378080E+03</rscale>
<asrwt>0</asrwt>
<pdfrwt beam="1">  1       21 0.70319943E-01 0.63378080E+03</pdfrwt>
<pdfrwt beam="2">  1        2 0.31417201E+00 0.63378080E+03</pdfrwt>
<totfact> 0.13587517E+02</totfact>
</mgrwt>
</event>
<event>
 5      1 +1.8937969e-08 7.39970800e+02 7.81665300e-03 9.65121700e-02
        2 -1    0    0  502    0 +0.0000000000e+00 +0.0000000000e+00 +8.7099348660e+02 8.7099348660e+02 2.5000000000e-03 0.0000e+00 1.0000e+00
       -2 -1    0    0    0  501 -0.0000000000e+00 -0.0000000000e+00 -1.2717477611e+03 1.2717477611e+03 2.5000000000e-03 0.0000e+00 -1.0000e+00
  1000022  1    1    2    0    0 +1.0477636524e+02 +4.1786304824e+02 -9.2041272804e+02 1.1865627414e+03 6.1252260000e+02 0.0000e+00 -1.0000e+00
  1000022  1    1    2    0    0 -4.1077930983e+01 -3.4005456921e+02 +4.4580468842e+02 8.3141461509e+02 6.1252260000e+02 0.0000e+00 1.0000e+00
       21  1    1    2  502  501 -6.3698434262e+01 -7.7808479030e+01 +7.3853765109e+01 1.2476389124e+02 0.0000000000e+00 0.0000e+00 -1.0000e+00
<mgrwt>
<rscale>  1 0.73997076E+03</rscale>
<asrwt>0</asrwt>
<pdfrwt beam="1">  1        2 0.13399900E+00 0.73997076E+03</pdfrwt>
<pdfrwt beam="2">  1       -2 0.19565350E+00 0.73997076E+03</pdfrwt>
<totfact> 0.44629116E+00</totfact>
</mgrwt>
</event>
<event>
 5      1 +1.8937969e-08 8.69591100e+02 7.81665300e-03 9.46441300e-02
        3 -1    0    0  502    0 +0.0000000000e+00 +0.0000000000e+00 +1.4648155611e+03 1.4648155641e+03 9.5000000000e-02 0.0000e+00 1.0000e+00
       -3 -1    0    0    0  501 -0.0000000000e+00 -0.0000000000e+00 -5.9239587504e+02 5.9239588266e+02 9.5000000000e-02 0.0000e+00 1.0000e+00
  1000022  1    1    2    0    0 -6.4095983742e+02 -7.9735240365e+01 +2.8957828437e+02 9.3606983715e+02 6.1252260000e+02 0.0000e+00 -1.0000e+00
  1000022  1    1    2    0    0 +5.7255613930e+02 +1.2535980568e+02 +4.3713832558e+02 9.5383932858e+02 6.1252260000e+02 0.0000e+00 -1.0000e+00
       21  1    1    2  502  501 +6.8403698115e+01 -4.5624565315e+01 +1.4570307606e+02 1.6730228107e+02 0.0000000000e+00 0.0000e+00 -1.0000e+00
<mgrwt>
<rscale>  1 0.86959114E+03</rscale>
<asrwt>0</asrwt>
<pdfrwt beam="1">  1        3 0.22535624E+00 0.86959114E+03</pdfrwt>
<pdfrwt beam="2">  1       -3 0.91137828E-01 0.86959114E+03</pdfrwt>
<totfact> 0.28821998E-01</totfact>
</mgrwt>
</event>
<event>
 5      1 +1.8937969e-08 1.22916200e+03 7.81665300e-03 9.08770700e-02
       -2 -1    0    0    0  501 -0.0000000000e+00 +0.0000000000e+00 +2.6006643085e+03 2.6006643085e+03 2.5000000000e-03 0.0000e+00 1.0000e+00
        2 -1    0    0  502    0 +0.0000000000e+00 -0.0000000000e+00 -6.6118609258e+02 6.6118609259e+02 2.5000000000e-03 0.0000e+00 -1.0000e+00
  1000022  1    1    2    0    0 +1.0719249104e+03 +6.4546739588e+01 +4.8707325883e+02 1.3287639332e+03 6.1252260000e+02 0.0000e+00 -1.0000e+00
  1000022  1    1    2    0    0 -1.0488174039e+03 -7.8625946293e+01 +1.3100698281e+03 1.7882021351e+03 6.1252260000e+02 0.0000e+00 1.0000e+00
       21  1    1    2  502  501 -2.3107506530e+01 +1.4079206705e+01 +1.4233512900e+02 1.4488433272e+02 0.0000000000e+00 0.0000e+00 1.0000e+00
<mgrwt>
<rscale>  1 0.12291621E+04</rscale>
<asrwt>0</asrwt>
<pdfrwt beam="2">  1        2 0.10172094E+00 0.12291621E+04</pdfrwt>
<pdfrwt beam="1">  1       -2 0.40010220E+00 0.12291621E+04</pdfrwt>
<totfact> 0.32199757E-01</totfact>
</mgrwt>
</event>
<event>
 5      1 +1.8937969e-08 7.65312800e+02 7.81665300e-03 9.61162900e-02
       21 -1    0    0  501  502 +0.0000000000e+00 +0.0000000000e+00 +8.3117940175e+02 8.3117940175e+02 0.0000000000e+00 0.0000e+00 -1.0000e+00
        3 -1    0    0  502    0 -0.0000000000e+00 -0.0000000000e+00 -1.0088253035e+03 1.0088253079e+03 9.5000000000e-02 0.0000e+00 -1.0000e+00
  1000022  1    1    2    0    0 -3.6726003701e+02 -3.8186306432e+02 +2.9859637219e+02 8.6315877084e+02 6.1252260000e+02 0.0000e+00 1.0000e+00
  1000022  1    1    2    0    0 +2.9795475241e+02 +3.1426235196e+02 -4.5621063905e+02 8.7798060516e+02 6.1252260000e+02 0.0000e+00 1.0000e+00
        3  1    1    2  501    0 +6.9305284597e+01 +6.7600712362e+01 -2.0031634850e+01 9.8865333685e+01 9.5000000000e-02 0.0000e+00 1.0000e+00
<mgrwt>
<rscale>  1 0.76531279E+03</rscale>
<asrwt>0</asrwt>
<pdfrwt beam="1">  1       21 0.12787375E+00 0.76531279E+03</pdfrwt>
<pdfrwt beam="2">  1        3 0.15520389E+00 0.76531279E+03</pdfrwt>
<totfact> 0.57543651E+00</totfact>
</mgrwt>
</event>
<event>
 5      1 +1.8937969e-08 8.68864400e+02 7.81665300e-03 9.46536200e-02
       21 -1    0    0  501  502 +0.0000000000e+00 +0.0000000000e+00 +5.4868852940e+02 5.4868852940e+02 0.0000000000e+00 0.0000e+00 -1.0000e+00
       -3 -1    0    0    0  501 -0.0000000000e+00 -0.0000000000e+00 -1.5041196499e+03 1.5041196529e+03 9.5000000000e-02 0.0000e+00 -1.0000e+00
  1000022  1    1    2    0    0 -5.8689453914e+02 -8.4953794743e+01 -4.2047993858e+02 9.5060489246e+02 6.1252260000e+02 0.0000e+00 1.0000e+00
  1000022  1    1    2    0    0 +6.3598216720e+02 +5.3970346742e+01 -5.5072535647e+02 1.0420501279e+03 6.1252260000e+02 0.0000e+00 1.0000e+00
       -3  1    1    2    0  502 -4.9087628060e+01 +3.0983448001e+01 +1.5774174565e+01 6.0153161902e+01 9.5000000000e-02 0.0000e+00 1.0000e+00
<mgrwt>
<rscale>  1 0.86886439E+03</rscale>
<asrwt>0</asrwt>
<pdfrwt beam="1">  1       21 0.84413620E-01 0.86886439E+03</pdfrwt>
<pdfrwt beam="2">  1       -3 0.23140302E+00 0.86886439E+03</pdfrwt>
<totfact> 0.50606887E+00</totfact>
</mgrwt>
</event>
<event>
 5      1 +1.8937969e-08 6.15700700e+02 7.81665300e-03 9.87335700e-02
        3 -1    0    0  502    0 +0.0000000000e+00 +0.0000000000e+00 +1.0464139150e+03 1.0464139193e+03 9.5000000000e-02 0.0000e+00 -1.0000e+00
       -3 -1    0    0    0  501 -0.0000000000e+00 -0.0000000000e+00 -3.8514131225e+02 3.8514132397e+02 9.5000000000e-02 0.0000e+00 1.0000e+00
  1000022  1    1    2    0    0 -2.1975708308e+01 +6.4262960536e+01 +2.6013414711e+02 6.6892927119e+02 6.1252260000e+02 0.0000e+00 1.0000e+00
  1000022  1    1    2    0    0 +3.9819179851e+01 -4.5238109855e+01 +4.0423858013e+02 7.3635916430e+02 6.1252260000e+02 0.0000e+00 -1.0000e+00
       21  1    1    2  502  501 -1.7843471543e+01 -1.9024850681e+01 -3.1001244815e+00 2.6266807798e+01 0.0000000000e+00 0.0000e+00 -1.0000e+00
<mgrwt>
<rscale>  1 0.61570065E+03</rscale>
<asrwt>0</asrwt>
<pdfrwt beam="1">  1        3 0.16098675E+00 0.61570065E+03</pdfrwt>
<pdfrwt beam="2">  1       -3 0.59252512E-01 0.61570065E+03</pdfrwt>
<totfact> 0.19642423E+00</totfact>
</mgrwt>
</event>
<event>
 5      1 +1.8937969e-08 6.68154600e+02 7.81665300e-03 9.77329700e-02
       -2 -1    0    0    0  501 -0.0000000000e+00 +0.0000000000e+00 +9.2121268879e+02 9.2121268880e+02 2.5000000000e-03 0.0000e+00 1.0000e+00
        2 -1    0    0  502    0 +0.0000000000e+00 -0.0000000000e+00 -9.3259807971e+02 9.3259807971e+02 2.5000000000e-03 0.0000e+00 -1.0000e+00
  1000022  1    1    2    0    0 +1.4745185863e+02 +1.9698553547e+02 -5.9038545133e+02 8.8559825454e+02 6.1252260000e+02 0.0000e+00 -1.0000e+00
  1000022  1    1    2    0    0 -1.6702274903e+02 -2.1347009109e+02 +6.2464957689e+02 9.1588050962e+02 6.1252260000e+02 0.0000e+00 1.0000e+00
       21  1    1    2  502  501 +1.9570890400e+01 +1.6484555623e+01 -4.5649516470e+01 5.2332004348e+01 0.0000000000e+00 0.0000e+00 -1.0000e+00
<mgrwt>
<rscale>  1 0.66815462E+03</rscale>
<asrwt>0</asrwt>
<pdfrwt beam="2">  1        2 0.14347663E+00 0.66815462E+03</pdfrwt>
<pdfrwt beam="1">  1       -2 0.14172503E+00 0.66815462E+03</pdfrwt>
<totfact> 0.99659175E+00</totfact>
</mgrwt>
</event>
<event>
 5      1 +1.8937969e-08 7.40661300e+02 7.81665300e-03 9.65011600e-02
       -1 -1    0    0    0  501 -0.0000000000e+00 +0.0000000000e+00 +6.1063420342e+02 6.1063420344e+02 5.0000000000e-03 0.0000e+00 1.0000e+00
        1 -1    0    0  502    0 +0.0000000000e+00 -0.0000000000e+00 -9.6344307284e+02 9.6344307286e+02 5.0000000000e-03 0.0000e+00 -1.0000e+00
  1000022  1    1    2    0    0 -3.0342339397e+02 -2.6376161498e+02 -1.2540021944e+02 7.4333377166e+02 6.1252260000e+02 0.0000e+00 1.0000e+00
  1000022  1    1    2    0    0 +3.2239481945e+02 +2.8274353985e+02 -2.5714322109e+02 7.9068887725e+02 6.1252260000e+02 0.0000e+00 -1.0000e+00
       21  1    1    2  502  501 -1.8971425478e+01 -1.8981924869e+01 +2.9734571109e+01 4.0054627391e+01 0.0000000000e+00 0.0000e+00 1.0000e+00
<mgrwt>
<rscale>  1 0.74066130E+03</rscale>
<asrwt>0</asrwt>
<pdfrwt beam="2">  1        1 0.14822201E+00 0.74066130E+03</pdfrwt>
<pdfrwt beam="1">  1       -1 0.93943723E-01 0.74066130E+03</pdfrwt>
<totfact> 0.18294939E+01</totfact>
</mgrwt>
</event>
<event>
 5      1 +1.8937969e-08 6.22668600e+02 7.81665300e-03 9.85946100e-02
       -2 -1    0    0    0  501 -0.0000000000e+00 +0.0000000000e+00 +4.4933722218e+02 4.4933722219e+02 2.5000000000e-03 0.0000e+00 1.0000e+00
       21 -1    0    0  501  502 +0.0000000000e+00 -0.0000000000e+00 -9.7715014294e+02 9.7715014294e+02 0.0000000000e+00 0.0000e+00 -1.0000e+00
  1000022  1    1    2    0    0 -6.6968755829e+01 -1.0659535537e+02 -1.8432371646e+02 6.5192526566e+02 6.1252260000e+02 0.0000e+00 -1.0000e+00
  1000022  1    1    2    0    0 +4.8999661860e+01 +8.3677646909e+01 -2.3655907465e+02 6.6373718200e+02 6.1252260000e+02 0.0000e+00 1.0000e+00
       -2  1    1    2    0  502 +1.7969093969e+01 +2.2917708460e+01 -1.0693012965e+02 1.1082491747e+02 2.5000000000e-03 0.0000e+00 1.0000e+00
<mgrwt>
<rscale>  1 0.62266860E+03</rscale>
<asrwt>0</asrwt>
<pdfrwt beam="2">  1       21 0.15033079E+00 0.62266860E+03</pdfrwt>
<pdfrwt beam="1">  1       -2 0.69128804E-01 0.62266860E+03</pdfrwt>
<totfact> 0.39743293E+01</totfact>
</mgrwt>
</event>
<event>
 5      1 +1.8937969e-08 6.25111400e+02 7.81665300e-03 9.85463500e-02
        3 -1    0    0  502    0 +0.0000000000e+00 +0.0000000000e+00 +6.7412409658e+02 6.7412410327e+02 9.5000000000e-02 0.0000e+00 1.0000e+00
       -3 -1    0    0    0  501 -0.0000000000e+00 -0.0000000000e+00 -1.2030801933e+03 1.2030801970e+03 9.5000000000e-02 0.0000e+00 1.0000e+00
  1000022  1    1    2    0    0 -4.4505292218e+01 +8.0030151366e+01 +3.7807503612e+02 7.2561023602e+02 6.1252260000e+02 0.0000e+00 -1.0000e+00
  1000022  1    1    2    0    0 +4.1743378137e+01 -1.2407824596e+02 -9.1285173688e+02 1.1070773007e+03 6.1252260000e+02 0.0000e+00 -1.0000e+00
       21  1    1    2  502  501 +2.7619140805e+00 +4.4048094595e+01 +5.8206040581e+00 4.4516763567e+01 0.0000000000e+00 0.0000e+00 1.0000e+00
<mgrwt>
<rscale>  1 0.62511138E+03</rscale>
<asrwt>0</asrwt>
<pdfrwt beam="1">  1        3 0.10371140E+00 0.62511138E+03</pdfrwt>
<pdfrwt beam="2">  1       -3 0.18508926E+00 0.62511138E+03</pdfrwt>
<totfact> 0.38454511E-01</totfact>
</mgrwt>
</event>
<event>
 5      1 +1.8937969e-08 6.92366200e+02 7.81665300e-03 9.73037700e-02
        1 -1    0    0  502    0 +0.0000000000e+00 +0.0000000000e+00 +1.6361430250e+03 1.6361430250e+03 5.0000000000e-03 0.0000e+00 -1.0000e+00
       -1 -1    0    0    0  501 -0.0000000000e+00 -0.0000000000e+00 -5.3514710491e+02 5.3514710494e+02 5.0000000000e-03 0.0000e+00 -1.0000e+00
  1000022  1    1    2    0    0 -1.8494810770e+02 -2.6668997314e+02 +1.2281528776e+03 1.4102740055e+03 6.1252260000e+02 0.0000e+00 1.0000e+00
  1000022  1    1    2    0    0 +1.5402899667e+02 +2.7667066220e+02 -6.7171471446e+01 6.9279688887e+02 6.1252260000e+02 0.0000e+00 1.0000e+00
       21  1    1    2  502  501 +3.0919111023e+01 -9.9806890567e+00 -5.9985486002e+01 6.8219235640e+01 0.0000000000e+00 0.0000e+00 1.0000e+00
<mgrwt>
<rscale>  1 0.69236617E+03</rscale>
<asrwt>0</asrwt>
<pdfrwt beam="1">  1        1 0.25171431E+00 0.69236617E+03</pdfrwt>
<pdfrwt beam="2">  1       -1 0.82330324E-01 0.69236617E+03</pdfrwt>
<totfact> 0.81281949E+00</totfact>
</mgrwt>
</event>
<event>
 5      1 +1.8937969e-08 7.49454500e+02 7.81665300e-03 9.63620600e-02
        3 -1    0    0  502    0 +0.0000000000e+00 +0.0000000000e+00 +2.0116111079e+03 2.0116111102e+03 9.5000000000e-02 0.0000e+00 1.0000e+00
       -3 -1    0    0    0  501 -0.0000000000e+00 -0.0000000000e+00 -4.0109978479e+02 4.0109979604e+02 9.5000000000e-02 0.0000e+00 1.0000e+00
  1000022  1    1    2    0    0 -4.1956464948e+02 +1.4647189587e+02 +1.9394651546e+02 7.8120912549e+02 6.1252260000e+02 0.0000e+00 -1.0000e+00
  1000022  1    1    2    0    0 +3.9531875831e+02 -1.6423986042e+02 +1.4163971234e+03 1.6014419750e+03 6.1252260000e+02 0.0000e+00 -1.0000e+00
       21  1    1    2  502  501 +2.4245891170e+01 +1.7767964554e+01 +1.6768422475e-01 3.0059805738e+01 0.0000000000e+00 0.0000e+00 1.0000e+00
<mgrwt>
<rscale>  1 0.74945455E+03</rscale>
<asrwt>0</asrwt>
<pdfrwt beam="1">  1        3 0.30947863E+00 0.74945455E+03</pdfrwt>
<pdfrwt beam="2">  1       -3 0.61707660E-01 0.74945455E+03</pdfrwt>
<totfact> 0.23284917E-01</totfact>
</mgrwt>
</event>
<event>
 5      1 +1.8937969e-08 8.58569000e+02 7.81665300e-03 9.47890800e-02
        3 -1    0    0  502    0 -0.0000000000e+00 +0.0000000000e+00 +1.6940378733e+03 1.6940378760e+03 9.5000000000e-02 0.0000e+00 1.0000e+00
       21 -1    0    0  501  502 +0.0000000000e+00 -0.0000000000e+00 -7.1536553709e+02 7.1536553709e+02 0.0000000000e+00 0.0000e+00 1.0000e+00
  1000022  1    1    2    0    0 -6.1073027248e+02 +3.5961195978e+02 +8.2835137883e+02 1.2504647815e+03 6.1252260000e+02 0.0000e+00 -1.0000e+00
  1000022  1    1    2    0    0 +4.8150558100e+02 -3.8310884237e+01 +2.0926203085e+02 8.0764465048e+02 6.1252260000e+02 0.0000e+00 -1.0000e+00
        3  1    1    2  501    0 +1.2922469148e+02 -3.2130107554e+02 -5.8941073443e+01 3.5129398115e+02 9.5000000000e-02 0.0000e+00 -1.0000e+00
<mgrwt>
<rscale>  1 0.85856899E+03</rscale>
<asrwt>0</asrwt>
<pdfrwt beam="2">  1       21 0.11005624E+00 0.85856899E+03</pdfrwt>
<pdfrwt beam="1">  1        3 0.26062121E+00 0.85856899E+03</pdfrwt>
<totfact> 0.18149313E+00</totfact>
</mgrwt>
</event>
<event>
 5      1 +1.8937969e-08 6.24658900e+02 7.81665300e-03 9.85552700e-02
        1 -1    0    0  502    0 +0.0000000000e+00 +0.0000000000e+00 +1.0905784607e+03 1.0905784608e+03 5.0000000000e-03 0.0000e+00 -1.0000e+00
       -1 -1    0    0    0  501 -0.0000000000e+00 -0.0000000000e+00 -6.6058458236e+02 6.6058458237e+02 5.0000000000e-03 0.0000e+00 1.0000e+00
  1000022  1    1    2    0    0 -2.2649272897e+01 +1.2887887101e+02 +7.0170231477e+02 9.4058111135e+02 6.1252260000e+02 0.0000e+00 -1.0000e+00
  1000022  1    1    2    0    0 -1.0054236122e+02 -9.7163490597e+01 -2.6873418757e+02 6.8333850278e+02 6.1252260000e+02 0.0000e+00 1.0000e+00
       21  1    1    2  502  501 +1.2319163411e+02 -3.1715380416e+01 -2.9742488096e+00 1.2724342901e+02 0.0000000000e+00 0.0000e+00 1.0000e+00
<mgrwt>
<rscale>  1 0.62465887E+03</rscale>
<asrwt>0</asrwt>
<pdfrwt beam="1">  1        1 0.16778130E+00 0.62465887E+03</pdfrwt>
<pdfrwt beam="2">  1       -1 0.10162840E+00 0.62465887E+03</pdfrwt>
<totfact> 0.12449855E+01</totfact>
</mgrwt>
</event>
<event>
 5      1 +1.8937969e-08 7.88808200e+02 7.81665300e-03 9.57636000e-02
       -3 -1    0    0    0  501 -0.0000000000e+00 +0.0000000000e+00 +7.6335996044e+02 7.6335996635e+02 9.5000000000e-02 0.0000e+00 1.0000e+00
        3 -1    0    0  502    0 +0.0000000000e+00 -0.0000000000e+00 -1.1014116224e+03 1.1014116265e+03 9.5000000000e-02 0.0000e+00 1.0000e+00
  1000022  1    1    2    0    0 -3.5989316129e+02 -3.5557061792e+02 -5.9293419355e+02 9.9131652123e+02 6.1252260000e+02 0.0000e+00 -1.0000e+00
  1000022  1    1    2    0    0 +3.7173180019e+02 +3.2555079977e+02 +2.7702070142e+02 8.3432143628e+02 6.1252260000e+02 0.0000e+00 -1.0000e+00
       21  1    1    2  502  501 -1.1838638903e+01 +3.0019818145e+01 -2.2138169875e+01 3.9133635378e+01 0.0000000000e+00 0.0000e+00 1.0000e+00
<mgrwt>
<rscale>  1 0.78880818E+03</rscale>
<asrwt>0</asrwt>
<pdfrwt beam="2">  1        3 0.16944794E+00 0.78880818E+03</pdfrwt>
<pdfrwt beam="1">  1       -3 0.11744000E+00 0.78880818E+03</pdfrwt>
<totfact> 0.36059303E-01</totfact>
</mgrwt>
</event>
<event>
 5      1 +1.8937969e-08 7.15160500e+02 7.81665300e-03 9.69165100e-02
       -3 -1    0    0    0  501 -0.0000000000e+00 +0.0000000000e+00 +1.6528693040e+03 1.6528693068e+03 9.5000000000e-02 0.0000e+00 -1.0000e+00
       21 -1    0    0  501  502 +0.0000000000e+00 -0.0000000000e+00 -4.9192105523e+02 4.9192105523e+02 0.0000000000e+00 0.0000e+00 -1.0000e+00
  1000022  1    1    2    0    0 +8.0995420874e+00 -3.7472576009e+02 +1.2082031665e+03 1.4054977143e+03 6.1252260000e+02 0.0000e+00 1.0000e+00
  1000022  1    1    2    0    0 -1.5484217377e+01 +3.4784299351e+02 -2.7466547222e+01 7.0510485451e+02 6.1252260000e+02 0.0000e+00 1.0000e+00
       -3  1    1    2    0  502 +7.3846752895e+00 +2.6882766588e+01 -1.9788370508e+01 3.4187793156e+01 9.5000000000e-02 0.0000e+00 1.0000e+00
<mgrwt>
<rscale>  1 0.71516050E+03</rscale>
<asrwt>0</asrwt>
<pdfrwt beam="2">  1       21 0.75680163E-01 0.71516050E+03</pdfrwt>
<pdfrwt beam="1">  1       -3 0.25428759E+00 0.71516050E+03</pdfrwt>
<totfact> 0.49526203E+00</totfact>
</mgrwt>
</event>
<event>
 5      1 +1.8937969e-08 8.64810500e+02 7.81665300e-03 9.47067200e-02
       -3 -1    0    0    0  501 -0.0000000000e+00 +0.0000000000e+00 +2.6824189449e+03 2.6824189466e+03 9.5000000000e-02 0.0000e+00 -1.0000e+00
        3 -1    0    0  502    0 +0.0000000000e+00 -0.0000000000e+00 -2.9996160253e+02 2.9996161758e+02 9.5000000000e-02 0.0000e+00 -1.0000e+00
  1000022  1    1    2    0    0 -5.2798855050e+02 -2.7729631321e+02 +9.8727722833e+02 1.3059729767e+03 6.1252260000e+02 0.0000e+00 1.0000e+00
  1000022  1    1    2    0    0 +5.5939817778e+02 +2.8449003411e+02 +1.2452483920e+03 1.5230523281e+03 6.1252260000e+02 0.0000e+00 1.0000e+00
       21  1    1    2  502  501 -3.1409627285e+01 -7.1937208993e+00 +1.4993172200e+02 1.5335525934e+02 0.0000000000e+00 0.0000e+00 1.0000e+00
<mgrwt>
<rscale>  1 0.86481053E+03</rscale>
<asrwt>0</asrwt>
<pdfrwt beam="2">  1        3 0.46147939E-01 0.86481053E+03</pdfrwt>
<pdfrwt beam="1">  1       -3 0.41267985E+00 0.86481053E+03</pdfrwt>
<totfact> 0.11233597E-01</totfact>
</mgrwt>
</event>
<event>
 5      1 +1.8937969e-08 6.17962000e+02 7.81665300e-03 9.86882600e-02
        2 -1    0    0  502    0 -0.0000000000e+00 +0.0000000000e+00 +2.6216735838e+03 2.6216735838e+03 2.5000000000e-03 0.0000e+00 -1.0000e+00
       21 -1    0    0  501  502 +0.0000000000e+00 -0.0000000000e+00 -3.0502211716e+02 3.0502211716e+02 0.0000000000e+00 0.0000e+00 -1.0000e+00
  1000022  1    1    2    0    0 +8.9386773127e+01 +1.6660716593e+01 +7.7978982678e+02 9.9575282281e+02 6.1252260000e+02 0.0000e+00 1.0000e+00
  1000022  1    1    2    0    0 -7.0890971197e+01 -3.2672612224e+01 +1.6778416076e+03 1.7878560974e+03 6.1252260000e+02 0.0000e+00 -1.0000e+00
        2  1    1    2  501    0 -1.8495801931e+01 +1.6011895631e+01 -1.4097996776e+02 1.4308678069e+02 2.5000000000e-03 0.0000e+00 -1.0000e+00
<mgrwt>
<rscale>  1 0.61796201E+03</rscale>
<asrwt>0</asrwt>
<pdfrwt beam="2">  1       21 0.46926481E-01 0.61796201E+03</pdfrwt>
<pdfrwt beam="1">  1        2 0.40333438E+00 0.61796201E+03</pdfrwt>
<totfact> 0.15790604E+02</totfact>
</mgrwt>
</event>
<event>
 5      1 +1.8937969e-08 8.03086600e+02 7.81665300e-03 9.55556000e-02
       -3 -1    0    0    0  501 -0.0000000000e+00 +0.0000000000e+00 +8.2502698995e+02 8.2502699542e+02 9.5000000000e-02 0.0000e+00 -1.0000e+00
        3 -1    0    0  502    0 +0.0000000000e+00 -0.0000000000e+00 -1.5343915107e+03 1.5343915136e+03 9.5000000000e-02 0.0000e+00 -1.0000e+00
  1000022  1    1    2    0    0 -2.8159517990e+02 -4.5328603583e+02 +3.4850425744e+02 8.8397015141e+02 6.1252260000e+02 0.0000e+00 1.0000e+00
  1000022  1    1    2    0    0 +3.0626278568e+02 +4.1618171997e+02 -1.1332022880e+03 1.3879248823e+03 6.1252260000e+02 0.0000e+00 1.0000e+00
       21  1    1    2  502  501 -2.4667605777e+01 +3.7104315856e+01 +7.5333509821e+01 8.7523475319e+01 0.0000000000e+00 0.0000e+00 1.0000e+00
<mgrwt>
<rscale>  1 0.80308663E+03</rscale>
<asrwt>0</asrwt>
<pdfrwt beam="2">  1        3 0.23606023E+00 0.80308663E+03</pdfrwt>
<pdfrwt beam="1">  1       -3 0.12692723E+00 0.80308663E+03</pdfrwt>
<totfact> 0.11345571E-01</totfact>
</mgrwt>
</event>
<event>
 5      1 +1.8937969e-08 7.52756800e+02 7.81665300e-03 9.63103500e-02
       21 -1    0    0  501  502 +0.0000000000e+00 +0.0000000000e+00 +3.7773701284e+02 3.7773701284e+02 0.0000000000e+00 0.0000e+00 -1.0000e+00
        3 -1    0    0  502    0 -0.0000000000e+00 -0.0000000000e+00 -2.3090882379e+03 2.3090882398e+03 9.5000000000e-02 0.0000e+00 -1.0000e+00
  1000022  1    1    2    0    0 +3.6706899250e+02 +2.5518303520e+02 -1.6700037043e+03 1.8341085940e+03 6.1252260000e+02 0.0000e+00 1.0000e+00
  1000022  1    1    2    0    0 -3.4966058320e+02 -2.1289960651e+02 -2.9739341838e+02 7.9449074677e+02 6.1252260000e+02 0.0000e+00 1.0000e+00
        3  1    1    2  501    0 -1.7408409301e+01 -4.2283428689e+01 +3.6045897633e+01 5.8225911905e+01 9.5000000000e-02 0.0000e+00 1.0000e+00
<mgrwt>
<rscale>  1 0.75275683E+03</rscale>
<asrwt>0</asrwt>
<pdfrwt beam="1">  1       21 0.58113387E-01 0.75275683E+03</pdfrwt>
<pdfrwt beam="2">  1        3 0.35524434E+00 0.75275683E+03</pdfrwt>
<totfact> 0.25358707E+00</totfact>
</mgrwt>
</event>
<event>
 5      1 +1.8937969e-08 8.30705400e+02 7.81665300e-03 9.51660600e-02
       -3 -1    0    0    0  501 -0.0000000000e+00 +0.0000000000e+00 +3.9039002825e+02 3.9039003981e+02 9.5000000000e-02 0.0000e+00 1.0000e+00
        3 -1    0    0  502    0 +0.0000000000e+00 -0.0000000000e+00 -2.2035178817e+03 2.2035178837e+03 9.5000000000e-02 0.0000e+00 1.0000e+00
  1000022  1    1    2    0    0 +5.0673854949e+02 +2.4729961677e+02 -4.9792904748e+02 9.7008160988e+02 6.1252260000e+02 0.0000e+00 -1.0000e+00
  1000022  1    1    2    0    0 -4.8663178685e+02 -2.7746997462e+02 -1.3425400456e+03 1.5784162291e+03 6.1252260000e+02 0.0000e+00 -1.0000e+00
       21  1    1    2  502  501 -2.0106762633e+01 +3.0170357842e+01 +2.7341239618e+01 4.5410084559e+01 0.0000000000e+00 0.0000e+00 -1.0000e+00
<mgrwt>
<rscale>  1 0.83070544E+03</rscale>
<asrwt>0</asrwt>
<pdfrwt beam="2">  1        3 0.33900274E+00 0.83070544E+03</pdfrwt>
<pdfrwt beam="1">  1       -3 0.60060007E-01 0.83070544E+03</pdfrwt>
<totfact> 0.16947312E-01</totfact>
</mgrwt>
</event>
<event>
 5      1 +1.8937969e-08 8.58647100e+02 7.81665300e-03 9.47880400e-02
       -3 -1    0    0    0  501 -0.0000000000e+00 +0.0000000000e+00 +6.0400300078e+02 6.0400300825e+02 9.5000000000e-02 0.0000e+00 -1.0000e+00
        3 -1    0    0  502    0 +0.0000000000e+00 -0.0000000000e+00 -1.4362124825e+03 1.4362124856e+03 9.5000000000e-02 0.0000e+00 -1.0000e+00
  1000022  1    1    2    0    0 +2.0696624471e+02 +5.6240664212e+02 -5.3553811247e+02 1.0105054493e+03 6.1252260000e+02 0.0000e+00 1.0000e+00
  1000022  1    1    2    0    0 -2.3100691356e+02 -5.5758169685e+02 -1.4012167664e+02 8.7125172169e+02 6.1252260000e+02 0.0000e+00 1.0000e+00
       21  1    1    2  502  501 +2.4040668845e+01 -4.8249452658e+00 -1.5654969257e+02 1.5845832290e+02 0.0000000000e+00 0.0000e+00 1.0000e+00
<mgrwt>
<rscale>  1 0.85864711E+03</rscale>
<asrwt>0</asrwt>
<pdfrwt beam="2">  1        3 0.22095577E+00 0.85864711E+03</pdfrwt>
<pdfrwt beam="1">  1       -3 0.92923539E-01 0.85864711E+03</pdfrwt>
<totfact> 0.29297357E-01</totfact>
</mgrwt>
</event>
<event>
 5      1 +1.8937969e-08 9.15196000e+02 7.81665300e-03 9.40678300e-02
        1 -1    0    0  502    0 +0.0000000000e+00 +0.0000000000e+00 +6.6294400129e+02 6.6294400131e+02 5.0000000000e-03 0.0000e+00 -1.0000e+00
       -1 -1    0    0    0  501 -0.0000000000e+00 -0.0000000000e+00 -1.4737372734e+03 1.4737372734e+03 5.0000000000e-03 0.0000e+00 1.0000e+00
  1000022  1    1    2    0    0 +4.0098555085e+02 -5.5357429315e+02 -4.8882453253e+02 1.0398881041e+03 6.1252260000e+02 0.0000e+00 1.0000e+00
  1000022  1    1    2    0    0 -3.6303377560e+02 +5.7264627502e+02 -1.5784546340e+02 9.2726285612e+02 6.1252260000e+02 0.0000e+00 -1.0000e+00
       21  1    1    2  502  501 -3.7951775244e+01 -1.9071981870e+01 -1.6412327613e+02 1.6953031441e+02 0.0000000000e+00 0.0000e+00 -1.0000e+00
<mgrwt>
<rscale>  1 0.91519597E+03</rscale>
<asrwt>0</asrwt>
<pdfrwt beam="1">  1        1 0.10199139E+00 0.91519597E+03</pdfrwt>
<pdfrwt beam="2">  1       -1 0.22672881E+00 0.91519597E+03</pdfrwt>
<totfact> 0.29837256E+00</totfact>
</mgrwt>
</event>
<event>
 5      1 +1.8937969e-08 7.31264600e+02 7.81665300e-03 9.66521000e-02
        3 -1    0    0  502    0 +0.0000000000e+00 +0.0000000000e+00 +7.7602049161e+02 7.7602049742e+02 9.5000000000e-02 0.0000e+00 1.0000e+00
       -3 -1    0    0    0  501 -0.0000000000e+00 -0.0000000000e+00 -1.1332389070e+03 1.1332389110e+03 9.5000000000e-02 0.0000e+00 1.0000e+00
  1000022  1    1    2    0    0 -3.9613553963e+02 -4.0346607908e+01 -7.2460912718e+02 1.0289769372e+03 6.1252260000e+02 0.0000e+00 -1.0000e+00
  1000022  1    1    2    0    0 +4.0580960377e+02 -3.0777935182e+00 +2.8782782725e+02 7.8912590946e+02 6.1252260000e+02 0.0000e+00 -1.0000e+00
       21  1    1    2  502  501 -9.6740641457e+00 +4.3424401427e+01 +7.9562884546e+01 9.1156561770e+01 0.0000000000e+00 0.0000e+00 1.0000e+00
<mgrwt>
<rscale>  1 0.73126464E+03</rscale>
<asrwt>0</asrwt>
<pdfrwt beam="1">  1        3 0.11938777E+00 0.73126464E+03</pdfrwt>
<pdfrwt beam="2">  1       -3 0.17434445E+00 0.73126464E+03</pdfrwt>
<totfact> 0.32118101E-01</totfact>
</mgrwt>
</event>
<event>
 5      1 +1.8937969e-08 7.22080800e+02 7.81665300e-03 9.68019900e-02
        2 -1    0    0  502    0 +0.0000000000e+00 +0.0000000000e+00 +2.4707274929e+03 2.4707274929e+03 2.5000000000e-03 0.0000e+00 -1.0000e+00
       -2 -1    0    0    0  501 -0.0000000000e+00 -0.0000000000e+00 -5.0436639095e+02 5.0436639095e+02 2.5000000000e-03 0.0000e+00 1.0000e+00
  1000022  1    1    2    0    0 +2.5367402025e+02 +2.8507805677e+02 -1.2084089342e+02 7.3171474226e+02 6.1252260000e+02 0.0000e+00 1.0000e+00
  1000022  1    1    2    0    0 -2.0112573615e+02 -3.3754972504e+02 +1.7014204081e+03 1.8505152577e+03 6.1252260000e+02 0.0000e+00 -1.0000e+00
       21  1    1    2  502  501 -5.2548284100e+01 +5.2471668271e+01 +3.8578158735e+02 3.9286388390e+02 0.0000000000e+00 0.0000e+00 1.0000e+00
<mgrwt>
<rscale>  1 0.72208075E+03</rscale>
<asrwt>0</asrwt>
<pdfrwt beam="1">  1        2 0.38011193E+00 0.72208075E+03</pdfrwt>
<pdfrwt beam="2">  1       -2 0.77594828E-01 0.72208075E+03</pdfrwt>
<totfact> 0.56477914E+00</totfact>
</mgrwt>
</event>
<event>
 5      1 +1.8937969e-08 6.58722200e+02 7.81665300e-03 9.79054900e-02
       -1 -1    0    0    0  501 -0.0000000000e+00 +0.0000000000e+00 +3.7097028696e+02 3.7097028699e+02 5.0000000000e-03 0.0000e+00 1.0000e+00
        1 -1    0    0  502    0 +0.0000000000e+00 -0.0000000000e+00 -2.1154128616e+03 2.1154128616e+03 5.0000000000e-03 0.0000e+00 -1.0000e+00
  1000022  1    1    2    0    0 +2.3021880079e+02 +6.9768908660e+01 -5.9953419144e+01 6.6079251269e+02 6.1252260000e+02 0.0000e+00 1.0000e+00
  1000022  1    1    2    0    0 -2.4488993850e+02 -5.3772905710e+01 -1.4961474359e+03 1.6360023511e+03 6.1252260000e+02 0.0000e+00 -1.0000e+00
       21  1    1    2  502  501 +1.4671137702e+01 -1.5996002949e+01 -1.8834171958e+02 1.8958828478e+02 0.0000000000e+00 0.0000e+00 1.0000e+00
<mgrwt>
<rscale>  1 0.65872220E+03</rscale>
<asrwt>0</asrwt>
<pdfrwt beam="2">  1        1 0.32544813E+00 0.65872220E+03</pdfrwt>
<pdfrwt beam="1">  1       -1 0.57072353E-01 0.65872220E+03</pdfrwt>
<totfact> 0.82434307E+00</totfact>
</mgrwt>
</event>
<event>
 5      1 +1.8937969e-08 6.21103000e+02 7.81665300e-03 9.86256600e-02
       -3 -1    0    0    0  501 -0.0000000000e+00 +0.0000000000e+00 +1.2105499481e+03 1.2105499518e+03 9.5000000000e-02 0.0000e+00 1.0000e+00
        3 -1    0    0  502    0 +0.0000000000e+00 -0.0000000000e+00 -4.8805589953e+02 4.8805590878e+02 9.5000000000e-02 0.0000e+00 1.0000e+00
  1000022  1    1    2    0    0 +5.7560874695e+01 -8.3958913049e+01 +8.1954634828e+02 1.0282035333e+03 6.1252260000e+02 0.0000e+00 -1.0000e+00
  1000022  1    1    2    0    0 -8.3095330338e+01 +6.3084864692e+01 -1.1641784777e+02 6.3215629781e+02 6.1252260000e+02 0.0000e+00 -1.0000e+00
       21  1    1    2  502  501 +2.5534455643e+01 +2.0874048357e+01 +1.9365548012e+01 3.8246029462e+01 0.0000000000e+00 0.0000e+00 -1.0000e+00
<mgrwt>
<rscale>  1 0.62110302E+03</rscale>
<asrwt>0</asrwt>
<pdfrwt beam="2">  1        3 0.75085524E-01 0.62110302E+03</pdfrwt>
<pdfrwt beam="1">  1       -3 0.18623845E+00 0.62110302E+03</pdfrwt>
<totfact> 0.78934784E-01</totfact>
</mgrwt>
</event>
<event>
 5      1 +1.8937969e-08 6.54194900e+02 7.81665300e-03 9.79893900e-02
       -1 -1    0    0    0  501 -0.0000000000e+00 +0.0000000000e+00 +1.8123390742e+02 1.8123390749e+02 5.0000000000e-03 0.0000e+00 1.0000e+00
        1 -1    0    0  502    0 +0.0000000000e+00 -0.0000000000e+00 -3.3385367622e+03 3.3385367622e+03 5.0000000000e-03 0.0000e+00 -1.0000e+00
  1000022  1    1    2    0    0 +1.3205327937e+02 -1.4596728790e+02 -7.5106949220e+02 9.8895593196e+02 6.1252260000e+02 0.0000e+00 1.0000e+00
  1000022  1    1    2    0    0 -9.2532441595e+01 +2.2820664873e+02 -2.2887691204e+03 2.3820765205e+03 6.1252260000e+02 0.0000e+00 -1.0000e+00
       21  1    1    2  502  501 -3.9520837778e+01 -8.2239360833e+01 -1.1746424212e+02 1.4873821723e+02 0.0000000000e+00 0.0000e+00 -1.0000e+00
<mgrwt>
<rscale>  1 0.65419494E+03</rscale>
<asrwt>0</asrwt>
<pdfrwt beam="2">  1        1 0.51362099E+00 0.65419494E+03</pdfrwt>
<pdfrwt beam="1">  1       -1 0.27882142E-01 0.65419494E+03</pdfrwt>
<totfact> 0.42473744E+00</totfact>
</mgrwt>
</event>
<event>
 5      1 +1.8937969e-08 6.32658100e+02 7.81665300e-03 9.83987500e-02
       -1 -1    0    0    0  501 -0.0000000000e+00 +0.0000000000e+00 +2.3376795821e+02 2.3376795827e+02 5.0000000000e-03 0.0000e+00 1.0000e+00
        1 -1    0    0  502    0 +0.0000000000e+00 -0.0000000000e+00 -2.8556740926e+03 2.8556740926e+03 5.0000000000e-03 0.0000e+00 -1.0000e+00
  1000022  1    1    2    0    0 +4.5356758080e+01 -1.0998362712e+02 -2.1560564417e+03 2.2445304518e+03 6.1252260000e+02 0.0000e+00 -1.0000e+00
  1000022  1    1    2    0    0 -4.4159259809e+01 +1.6252229670e+02 -3.6880344576e+02 7.3454983103e+02 6.1252260000e+02 0.0000e+00 1.0000e+00
       21  1    1    2  502  501 -1.1974982710e+00 -5.2538669583e+01 -9.7046246950e+01 1.1036176807e+02 0.0000000000e+00 0.0000e+00 -1.0000e+00
<mgrwt>
<rscale>  1 0.63265806E+03</rscale>
<asrwt>0</asrwt>
<pdfrwt beam="2">  1        1 0.43933445E+00 0.63265806E+03</pdfrwt>
<pdfrwt beam="1">  1       -1 0.35964303E-01 0.63265806E+03</pdfrwt>
<totfact> 0.61150276E+00</totfact>
</mgrwt>
</event>
<event>
 5      1 +1.8937969e-08 8.74824400e+02 7.81665300e-03 9.45761100e-02
        3 -1    0    0  502    0 +0.0000000000e+00 +0.0000000000e+00 +3.6291741173e+02 3.6291742417e+02 9.5000000000e-02 0.0000e+00 -1.0000e+00
       -3 -1    0    0    0  501 -0.0000000000e+00 -0.0000000000e+00 -2.2731578401e+03 2.2731578420e+03 9.5000000000e-02 0.0000e+00 -1.0000e+00
  1000022  1    1    2    0    0 +5.9266760466e+02 -2.5412679574e+02 -1.0931089427e+03 1.4092219180e+03 6.1252260000e+02 0.0000e+00 1.0000e+00
  1000022  1    1    2    0    0 -5.6477139479e+02 +2.0409414994e+02 -7.6263434470e+02 1.1477875368e+03 6.1252260000e+02 0.0000e+00 1.0000e+00
       21  1    1    2  502  501 -2.7896209873e+01 +5.0032645806e+01 -5.4497140905e+01 7.9065811438e+01 0.0000000000e+00 0.0000e+00 -1.0000e+00
<mgrwt>
<rscale>  1 0.87482438E+03</rscale>
<asrwt>0</asrwt>
<pdfrwt beam="1">  1        3 0.55833450E-01 0.87482438E+03</pdfrwt>
<pdfrwt beam="2">  1       -3 0.34971659E+00 0.87482438E+03</pdfrwt>
<totfact> 0.16754608E-01</totfact>
</mgrwt>
</event>
<event>
 5      1 +1.8937969e-08 8.57439300e+02 7.81665300e-03 9.48040600e-02
       21 -1    0    0  501  502 +0.0000000000e+00 +0.0000000000e+00 +1.1031734879e+03 1.1031734879e+03 0.0000000000e+00 0.0000e+00 1.0000e+00
       -3 -1    0    0    0  501 -0.0000000000e+00 -0.0000000000e+00 -1.0442303875e+03 1.0442303918e+03 9.5000000000e-02 0.0000e+00 1.0000e+00
  1000022  1    1    2    0    0 -5.4580588275e+02 -2.7482758500e+02 +1.3767971795e+01 8.6533678743e+02 6.1252260000e+02 0.0000e+00 -1.0000e+00
  1000022  1    1    2    0    0 +5.8659938266e+02 +1.2729375916e+02 -2.9670818990e+02 9.0748125177e+02 6.1252260000e+02 0.0000e+00 -1.0000e+00
       -3  1    1    2    0  502 -4.0793499906e+01 +1.4753382584e+02 +3.4188331850e+02 3.7458584049e+02 9.5000000000e-02 0.0000e+00 -1.0000e+00
<mgrwt>
<rscale>  1 0.85743934E+03</rscale>
<asrwt>0</asrwt>
<pdfrwt beam="1">  1       21 0.16971900E+00 0.85743934E+03</pdfrwt>
<pdfrwt beam="2">  1       -3 0.16065083E+00 0.85743934E+03</pdfrwt>
<totfact> 0.23531029E+00</totfact>
</mgrwt>
</event>
<event>
 5      1 +1.8937969e-08 7.45427100e+02 7.81665300e-03 9.64255200e-02
       21 -1    0    0  501  502 +0.0000000000e+00 +0.0000000000e+00 +1.3405592055e+03 1.3405592055e+03 0.0000000000e+00 0.0000e+00 -1.0000e+00
        3 -1    0    0  502    0 -0.0000000000e+00 -0.0000000000e+00 -1.3388385834e+03 1.3388385868e+03 9.5000000000e-02 0.0000e+00 1.0000e+00
  1000022  1    1    2    0    0 +2.7805283658e+02 -2.9761288104e+02 -8.3474484582e+02 1.1125959285e+03 6.1252260000e+02 0.0000e+00 -1.0000e+00
  1000022  1    1    2    0    0 -3.8948491153e+02 +2.8723614907e+02 +6.0681819722e+01 7.8298743310e+02 6.1252260000e+02 0.0000e+00 -1.0000e+00
        3  1    1    2  501    0 +1.1143207495e+02 +1.0376731975e+01 +7.7578364824e+02 7.8381443071e+02 9.5000000000e-02 0.0000e+00 -1.0000e+00
<mgrwt>
<rscale>  1 0.74542709E+03</rscale>
<asrwt>0</asrwt>
<pdfrwt beam="1">  1       21 0.20623988E+00 0.74542709E+03</pdfrwt>
<pdfrwt beam="2">  1        3 0.20597517E+00 0.74542709E+03</pdfrwt>
<totfact> 0.67164024E-01</totfact>
</mgrwt>
</event>
<event>
 5      1 +1.8937969e-08 7.46984500e+02 7.81665300e-03 9.64009300e-02
       -3 -1    0    0    0  501 -0.0000000000e+00 +0.0000000000e+00 +2.7037864170e+03 2.7037864186e+03 9.5000000000e-02 0.0000e+00 1.0000e+00
        3 -1    0    0  502    0 +0.0000000000e+00 -0.0000000000e+00 -3.0838855916e+02 3.0838857379e+02 9.5000000000e-02 0.0000e+00 1.0000e+00
  1000022  1    1    2    0    0 +4.4015030075e+02 -1.4791815230e+01 +3.7905833711e+02 8.4428682537e+02 6.1252260000e+02 0.0000e+00 -1.0000e+00
  1000022  1    1    2    0    0 -3.8422056423e+02 +4.0261772658e+01 +1.9340494007e+03 2.0651821886e+03 6.1252260000e+02 0.0000e+00 -1.0000e+00
       21  1    1    2  502  501 -5.5929736520e+01 -2.5469957428e+01 +8.2290120007e+01 1.0270597845e+02 0.0000000000e+00 0.0000e+00 1.0000e+00
<mgrwt>
<rscale>  1 0.74698452E+03</rscale>
<asrwt>0</asrwt>
<pdfrwt beam="2">  1        3 0.47444394E-01 0.74698452E+03</pdfrwt>
<pdfrwt beam="1">  1       -3 0.41596715E+00 0.74698452E+03</pdfrwt>
<totfact> 0.10336009E-01</totfact>
</mgrwt>
</event>
<event>
 5      1 +1.8937969e-08 7.67601000e+02 7.81665300e-03 9.60813500e-02
       -1 -1    0    0    0  501 -0.0000000000e+00 +0.0000000000e+00 +1.6566427745e+03 1.6566427745e+03 5.0000000000e-03 0.0000e+00 1.0000e+00
        1 -1    0    0  502    0 +0.0000000000e+00 -0.0000000000e+00 -7.1413598341e+02 7.1413598343e+02 5.0000000000e-03 0.0000e+00 -1.0000e+00
  1000022  1    1    2    0    0 +2.2693972762e+02 +4.8656742354e+02 +2.6763709075e+02 8.5735817806e+02 6.1252260000e+02 0.0000e+00 -1.0000e+00
  1000022  1    1    2    0    0 +8.8919868315e+01 -4.5035523791e+02 +8.5534803382e+02 1.1478374352e+03 6.1252260000e+02 0.0000e+00 1.0000e+00
       21  1    1    2  502  501 -3.1585959594e+02 -3.6212185636e+01 -1.8047833353e+02 3.6558314459e+02 0.0000000000e+00 0.0000e+00 1.0000e+00
<mgrwt>
<rscale>  1 0.76760105E+03</rscale>
<asrwt>0</asrwt>
<pdfrwt beam="2">  1        1 0.10986707E+00 0.76760105E+03</pdfrwt>
<pdfrwt beam="1">  1       -1 0.25486812E+00 0.76760105E+03</pdfrwt>
<totfact> 0.17879156E+00</totfact>
</mgrwt>
</event>
<event>
 5      1 +1.8937969e-08 6.59879100e+02 7.81665300e-03 9.78841600e-02
       21 -1    0    0  501  502 +0.0000000000e+00 +0.0000000000e+00 +1.0757589908e+03 1.0757589908e+03 0.0000000000e+00 0.0000e+00 -1.0000e+00
        3 -1    0    0  502    0 -0.0000000000e+00 -0.0000000000e+00 -8.6093115067e+02 8.6093115591e+02 9.5000000000e-02 0.0000e+00 -1.0000e+00
  1000022  1    1    2    0    0 -2.1869033636e+02 +6.1420515797e+00 +6.3032160745e+02 9.0573310216e+02 6.1252260000e+02 0.0000e+00 1.0000e+00
  1000022  1    1    2    0    0 +2.5076192816e+02 -1.0357290932e-01 -5.6973192371e+02 8.7330404542e+02 6.1252260000e+02 0.0000e+00 1.0000e+00
        3  1    1    2  501    0 -3.2071591801e+01 -6.0384786704e+00 +1.5423815635e+02 1.5765299910e+02 9.5000000000e-02 0.0000e+00 1.0000e+00
<mgrwt>
<rscale>  1 0.65987911E+03</rscale>
<asrwt>0</asrwt>
<pdfrwt beam="1">  1       21 0.16550138E+00 0.65987911E+03</pdfrwt>
<pdfrwt beam="2">  1        3 0.13245095E+00 0.65987911E+03</pdfrwt>
<totfact> 0.43596139E+00</totfact>
</mgrwt>
</event>
<event>
 5      1 +1.8937969e-08 6.27028800e+02 7.81665300e-03 9.85086400e-02
       -2 -1    0    0    0  501 -0.0000000000e+00 +0.0000000000e+00 +3.9147866852e+02 3.9147866853e+02 2.5000000000e-03 0.0000e+00 -1.0000e+00
        2 -1    0    0  502    0 +0.0000000000e+00 -0.0000000000e+00 -1.1937763805e+03 1.1937763805e+03 2.5000000000e-03 0.0000e+00 1.0000e+00
  1000022  1    1    2    0    0 -4.2353451292e+01 +1.3101308095e+02 -1.0905562326e+02 6.3720899766e+02 6.1252260000e+02 0.0000e+00 -1.0000e+00
  1000022  1    1    2    0    0 +2.2214558666e+01 -1.2535822055e+02 -6.6694168604e+02 9.1444153348e+02 6.1252260000e+02 0.0000e+00 1.0000e+00
       21  1    1    2  502  501 +2.0138892626e+01 -5.6548604066e+00 -2.6300402716e+01 3.3604517931e+01 0.0000000000e+00 0.0000e+00 1.0000e+00
<mgrwt>
<rscale>  1 0.62702885E+03</rscale>
<asrwt>0</asrwt>
<pdfrwt beam="2">  1        2 0.18365790E+00 0.62702885E+03</pdfrwt>
<pdfrwt beam="1">  1       -2 0.60227488E-01 0.62702885E+03</pdfrwt>
<totfact> 0.50584665E+01</totfact>
</mgrwt>
</event>
<event>
 5      1 +1.8937969e-08 8.35927300e+02 7.81665300e-03 9.50942200e-02
        3 -1    0    0  502    0 +0.0000000000e+00 +0.0000000000e+00 +2.2748507966e+02 2.2748509949e+02 9.5000000000e-02 0.0000e+00 -1.0000e+00
       -3 -1    0    0    0  501 -0.0000000000e+00 -0.0000000000e+00 -4.1697578122e+03 4.1697578133e+03 9.5000000000e-02 0.0000e+00 -1.0000e+00
  1000022  1    1    2    0    0 -5.0829288583e+02 +3.9082047037e+02 -1.2101311331e+03 1.5002345126e+03 6.1252260000e+02 0.0000e+00 1.0000e+00
  1000022  1    1    2    0    0 +3.5794382268e+02 -2.6043971848e+02 -2.3062112388e+03 2.4268800631e+03 6.1252260000e+02 0.0000e+00 1.0000e+00
       21  1    1    2  502  501 +1.5034906316e+02 -1.3038075189e+02 -4.2593036063e+02 4.7012833712e+02 0.0000000000e+00 0.0000e+00 -1.0000e+00
<mgrwt>
<rscale>  1 0.83592734E+03</rscale>
<asrwt>0</asrwt>
<pdfrwt beam="1">  1        3 0.34997709E-01 0.83592734E+03</pdfrwt>
<pdfrwt beam="2">  1       -3 0.64150115E+00 0.83592734E+03</pdfrwt>
<totfact> 0.12018789E-02</totfact>
</mgrwt>
</event>
<event>
 5      1 +1.8937969e-08 6.73317100e+02 7.81665300e-03 9.76398400e-02
        1 -1    0    0  502    0 +0.0000000000e+00 +0.0000000000e+00 +1.5605096571e+03 1.5605096571e+03 5.0000000000e-03 0.0000e+00 -1.0000e+00
       -1 -1    0    0    0  501 -0.0000000000e+00 -0.0000000000e+00 -5.2937234828e+02 5.2937234830e+02 5.0000000000e-03 0.0000e+00 -1.0000e+00
  1000022  1    1    2    0    0 -1.7614640185e+02 -1.4858198834e+02 +1.1095381396e+03 1.2881626376e+03 6.1252260000e+02 0.0000e+00 1.0000e+00
  1000022  1    1    2    0    0 +2.2834662367e+02 +1.7968256603e+02 -1.6328038008e+02 6.9733236201e+02 6.1252260000e+02 0.0000e+00 1.0000e+00
       21  1    1    2  502  501 -5.2200221820e+01 -3.1100577688e+01 +8.4879549228e+01 1.0438700574e+02 0.0000000000e+00 0.0000e+00 -1.0000e+00
<mgrwt>
<rscale>  1 0.67331709E+03</rscale>
<asrwt>0</asrwt>
<pdfrwt beam="1">  1        1 0.24007841E+00 0.67331709E+03</pdfrwt>
<pdfrwt beam="2">  1       -1 0.81441899E-01 0.67331709E+03</pdfrwt>
<totfact> 0.93888470E+00</totfact>
</mgrwt>
</event>
<event>
 5      1 +1.8937969e-08 8.54121000e+02 7.81665300e-03 9.48482300e-02
       -3 -1    0    0    0  501 -0.0000000000e+00 +0.0000000000e+00 +1.9285586268e+03 1.9285586292e+03 9.5000000000e-02 0.0000e+00 -1.0000e+00
        3 -1    0    0  502    0 +0.0000000000e+00 -0.0000000000e+00 -5.8390470623e+02 5.8390471395e+02 9.5000000000e-02 0.0000e+00 -1.0000e+00
  1000022  1    1    2    0    0 -5.8278438136e+02 -4.4844343795e+01 +5.0157666572e+02 9.8407913169e+02 6.1252260000e+02 0.0000e+00 1.0000e+00
  1000022  1    1    2    0    0 +5.9879391902e+02 +6.5087529223e+01 +1.0291281096e+03 1.3405518063e+03 6.1252260000e+02 0.0000e+00 1.0000e+00
       21  1    1    2  502  501 -1.6009537661e+01 -2.0243185427e+01 -1.8605085475e+02 1.8783240510e+02 0.0000000000e+00 0.0000e+00 1.0000e+00
<mgrwt>
<rscale>  1 0.85412096E+03</rscale>
<asrwt>0</asrwt>
<pdfrwt beam="2">  1        3 0.89831494E-01 0.85412096E+03</pdfrwt>
<pdfrwt beam="1">  1       -3 0.29670133E+00 0.85412096E+03</pdfrwt>
<totfact> 0.11585516E-01</totfact>
</mgrwt>
</event>
<event>
 5      1 +1.8937969e-08 7.39257400e+02 7.81665300e-03 9.65235600e-02
        3 -1    0    0  502    0 +0.0000000000e+00 +0.0000000000e+00 +1.6127737093e+03 1.6127737121e+03 9.5000000000e-02 0.0000e+00 -1.0000e+00
       -3 -1    0    0    0  501 -0.0000000000e+00 -0.0000000000e+00 -5.1532235873e+02 5.1532236749e+02 9.5000000000e-02 0.0000e+00 -1.0000e+00
  1000022  1    1    2    0    0 -1.6013254307e+02 -3.7621105150e+02 +1.1364413354e+03 1.3542008828e+03 6.1252260000e+02 0.0000e+00 1.0000e+00
  1000022  1    1    2    0    0 +1.6982010690e+02 +3.9728921039e+02 -3.5292786215e+01 7.5040462530e+02 6.1252260000e+02 0.0000e+00 1.0000e+00
       21  1    1    2  502  501 -9.6875638331e+00 -2.1078158883e+01 -3.6971985529e+00 2.3490571557e+01 0.0000000000e+00 0.0000e+00 -1.0000e+00
<mgrwt>
<rscale>  1 0.73925737E+03</rscale>
<asrwt>0</asrwt>
<pdfrwt beam="1">  1        3 0.24811903E+00 0.73925737E+03</pdfrwt>
<pdfrwt beam="2">  1       -3 0.79280363E-01 0.73925737E+03</pdfrwt>
<totfact> 0.29471430E-01</totfact>
</mgrwt>
</event>
<event>
 5      1 +1.8937969e-08 7.94175300e+02 7.81665300e-03 9.56848700e-02
       21 -1    0    0  501  502 +0.0000000000e+00 +0.0000000000e+00 +6.7140027417e+02 6.7140027417e+02 0.0000000000e+00 0.0000e+00 -1.0000e+00
       -3 -1    0    0    0  501 -0.0000000000e+00 -0.0000000000e+00 -1.0778162009e+03 1.0778162050e+03 9.5000000000e-02 0.0000e+00 -1.0000e+00
  1000022  1    1    2    0    0 +5.0460753603e+02 +1.4972888396e+02 +2.8878452825e+01 8.0812462198e+02 6.1252260000e+02 0.0000e+00 1.0000e+00
  1000022  1    1    2    0    0 -4.6298427233e+02 -1.7245151008e+02 -4.1136123182e+02 8.8797294908e+02 6.1252260000e+02 0.0000e+00 1.0000e+00
       -3  1    1    2    0  502 -4.1623263702e+01 +2.2722626117e+01 -2.3933147698e+01 5.3118908145e+01 9.5000000000e-02 0.0000e+00 1.0000e+00
<mgrwt>
<rscale>  1 0.79417527E+03</rscale>
<asrwt>0</asrwt>
<pdfrwt beam="1">  1       21 0.10329235E+00 0.79417527E+03</pdfrwt>
<pdfrwt beam="2">  1       -3 0.16581788E+00 0.79417527E+03</pdfrwt>
<totfact> 0.82388922E+00</totfact>
</mgrwt>
</event>
<event>
 5      1 +1.8937969e-08 7.93488500e+02 7.81665300e-03 9.56949000e-02
       21 -1    0    0  501  502 +0.0000000000e+00 +0.0000000000e+00 +7.1904231043e+02 7.1904231043e+02 0.0000000000e+00 0.0000e+00 -1.0000e+00
        3 -1    0    0  502    0 -0.0000000000e+00 -0.0000000000e+00 -1.1355073667e+03 1.1355073707e+03 9.5000000000e-02 0.0000e+00 -1.0000e+00
  1000022  1    1    2    0    0 -4.0336091610e+02 -2.7950267617e+02 +1.9366650388e+02 8.0840115343e+02 6.1252260000e+02 0.0000e+00 -1.0000e+00
  1000022  1    1    2    0    0 +4.4308583579e+02 +2.5331836165e+02 -5.9913121411e+02 9.9731509437e+02 6.1252260000e+02 0.0000e+00 -1.0000e+00
        3  1    1    2  501    0 -3.9724919689e+01 +2.6184314521e+01 -1.1000346049e+01 4.8833433316e+01 9.5000000000e-02 0.0000e+00 1.0000e+00
<mgrwt>
<rscale>  1 0.79348853E+03</rscale>
<asrwt>0</asrwt>
<pdfrwt beam="1">  1       21 0.11062189E+00 0.79348853E+03</pdfrwt>
<pdfrwt beam="2">  1        3 0.17469344E+00 0.79348853E+03</pdfrwt>
<totfact> 0.60545599E+00</totfact>
</mgrwt>
</event>
<event>
 5      1 +1.8937969e-08 8.10009800e+02 7.81665300e-03 9.54564000e-02
        3 -1    0    0  502    0 +0.0000000000e+00 +0.0000000000e+00 +6.4364507819e+02 6.4364508520e+02 9.5000000000e-02 0.0000e+00 1.0000e+00
       -3 -1    0    0    0  501 -0.0000000000e+00 -0.0000000000e+00 -1.2738156840e+03 1.2738156875e+03 9.5000000000e-02 0.0000e+00 1.0000e+00
  1000022  1    1    2    0    0 -4.6635268614e+02 -2.6166689960e+02 -6.9216785781e+02 1.0678177153e+03 6.1252260000e+02 0.0000e+00 -1.0000e+00
  1000022  1    1    2    0    0 +4.6814835534e+02 +2.2675398164e+02 +3.3081741492e+01 8.0427519415e+02 6.1252260000e+02 0.0000e+00 -1.0000e+00
       21  1    1    2  502  501 -1.7956692009e+00 +3.4912917959e+01 +2.8915510527e+01 4.5367863266e+01 0.0000000000e+00 0.0000e+00 -1.0000e+00
<mgrwt>
<rscale>  1 0.81000983E+03</rscale>
<asrwt>0</asrwt>
<pdfrwt beam="1">  1        3 0.99022321E-01 0.81000983E+03</pdfrwt>
<pdfrwt beam="2">  1       -3 0.19597164E+00 0.81000983E+03</pdfrwt>
<totfact> 0.35972491E-01</totfact>
</mgrwt>
</event>
<event>
 5      1 +1.8937969e-08 8.64935600e+02 7.81665300e-03 9.47050700e-02
       -3 -1    0    0    0  501 -0.0000000000e+00 +0.0000000000e+00 +2.2342774393e+03 2.2342774413e+03 9.5000000000e-02 0.0000e+00 1.0000e+00
        3 -1    0    0  502    0 +0.0000000000e+00 -0.0000000000e+00 -4.0330739109e+02 4.0330740228e+02 9.5000000000e-02 0.0000e+00 1.0000e+00
  1000022  1    1    2    0    0 +2.7078205201e+02 -5.5507110183e+02 +5.3518741426e+02 1.0212915116e+03 6.1252260000e+02 0.0000e+00 1.0000e+00
  1000022  1    1    2    0    0 -2.5140580689e+02 +5.4538195179e+02 +9.9079043356e+02 1.3105327054e+03 6.1252260000e+02 0.0000e+00 1.0000e+00
       21  1    1    2  502  501 -1.9376245121e+01 +9.6891500454e+00 +3.0499220036e+02 3.0576062661e+02 0.0000000000e+00 0.0000e+00 -1.0000e+00
<mgrwt>
<rscale>  1 0.86493565E+03</rscale>
<asrwt>0</asrwt>
<pdfrwt beam="2">  1        3 0.62047295E-01 0.86493565E+03</pdfrwt>
<pdfrwt beam="1">  1       -3 0.34373497E+00 0.86493565E+03</pdfrwt>
<totfact> 0.14461005E-01</totfact>
</mgrwt>
</event>
<event>
 5      1 +1.8937969e-08 8.63576800e+02 7.81665300e-03 9.47229400e-02
        3 -1    0    0  502    0 +0.0000000000e+00 +0.0000000000e+00 +9.2940905947e+02 9.2940906433e+02 9.5000000000e-02 0.0000e+00 -1.0000e+00
       -3 -1    0    0    0  501 -0.0000000000e+00 -0.0000000000e+00 -1.0427656481e+03 1.0427656525e+03 9.5000000000e-02 0.0000e+00 -1.0000e+00
  1000022  1    1    2    0    0 -6.7287929661e+01 +6.2276225574e+02 +1.9767508860e+02 8.9812018617e+02 6.1252260000e+02 0.0000e+00 1.0000e+00
  1000022  1    1    2    0    0 +1.0555288190e+02 -5.7614181331e+02 -9.8593585630e+01 8.5322062244e+02 6.1252260000e+02 0.0000e+00 1.0000e+00
       21  1    1    2  502  501 -3.8264952240e+01 -4.6620442421e+01 -2.1243809164e+02 2.2083390818e+02 0.0000000000e+00 0.0000e+00 1.0000e+00
<mgrwt>
<rscale>  1 0.86357677E+03</rscale>
<asrwt>0</asrwt>
<pdfrwt beam="1">  1        3 0.14298601E+00 0.86357677E+03</pdfrwt>
<pdfrwt beam="2">  1       -3 0.16042549E+00 0.86357677E+03</pdfrwt>
<totfact> 0.25367545E-01</totfact>
</mgrwt>
</event>
<event>
 5      1 +1.8937969e-08 8.34172100e+02 7.81665300e-03 9.51183000e-02
       21 -1    0    0  501  502 +0.0000000000e+00 +0.0000000000e+00 +6.9839866701e+02 6.9839866701e+02 0.0000000000e+00 0.0000e+00 1.0000e+00
       -3 -1    0    0    0  501 -0.0000000000e+00 -0.0000000000e+00 -1.5569181695e+03 1.5569181724e+03 9.5000000000e-02 0.0000e+00 1.0000e+00
  1000022  1    1    2    0    0 -5.0228431542e+02 -1.5566781997e+02 -7.4297723189e+02 1.0971422452e+03 6.1252260000e+02 0.0000e+00 -1.0000e+00
  1000022  1    1    2    0    0 +5.7455363698e+02 +2.9893236759e+02 -2.7406665052e+02 9.3261401802e+02 6.1252260000e+02 0.0000e+00 -1.0000e+00
       -3  1    1    2    0  502 -7.2269321564e+01 -1.4326454762e+02 +1.5852437993e+02 2.2556057613e+02 9.5000000000e-02 0.0000e+00 -1.0000e+00
<mgrwt>
<rscale>  1 0.83417208E+03</rscale>
<asrwt>0</asrwt>
<pdfrwt beam="1">  1       21 0.10744595E+00 0.83417208E+03</pdfrwt>
<pdfrwt beam="2">  1       -3 0.23952587E+00 0.83417208E+03</pdfrwt>
<totfact> 0.25322600E+00</totfact>
</mgrwt>
</event>
<event>
 5      1 +1.8937969e-08 6.88123900e+02 7.81665300e-03 9.73776000e-02
       -3 -1    0    0    0  501 -0.0000000000e+00 +0.0000000000e+00 +2.6592682014e+03 2.6592682031e+03 9.5000000000e-02 0.0000e+00 -1.0000e+00
        3 -1    0    0  502    0 +0.0000000000e+00 -0.0000000000e+00 -6.9825869485e+02 6.9825870132e+02 9.5000000000e-02 0.0000e+00 -1.0000e+00
  1000022  1    1    2    0    0 +2.8878979640e+01 -2.1296728158e+02 -1.4166152165e+02 6.6441025031e+02 6.1252260000e+02 0.0000e+00 1.0000e+00
  1000022  1    1    2    0    0 +2.9348632298e+02 +7.2011649741e+02 +8.5398545782e+02 1.3073549974e+03 6.1252260000e+02 0.0000e+00 1.0000e+00
       21  1    1    2  502  501 -3.2236530262e+02 -5.0714921583e+02 +1.2486855704e+03 1.3857616567e+03 0.0000000000e+00 0.0000e+00 -1.0000e+00
<mgrwt>
<rscale>  1 0.68812392E+03</rscale>
<asrwt>0</asrwt>
<pdfrwt beam="2">  1        3 0.10742442E+00 0.68812392E+03</pdfrwt>
<pdfrwt beam="1">  1       -3 0.40911817E+00 0.68812392E+03</pdfrwt>
<totfact> 0.18865853E-02</totfact>
</mgrwt>
</event>
<event>
 5      1 +1.8937969e-08 6.75174100e+02 7.81665300e-03 9.76065600e-02
        2 -1    0    0  502    0 +0.0000000000e+00 +0.0000000000e+00 +2.1256464504e+03 2.1256464504e+03 2.5000000000e-03 0.0000e+00 -1.0000e+00
       -2 -1    0    0    0  501 -0.0000000000e+00 -0.0000000000e+00 -2.2942701990e+02 2.2942701991e+02 2.5000000000e-03 0.0000e+00 1.0000e+00
  1000022  1    1    2    0    0 -2.8805133024e+02 +6.8061233699e+01 +7.8176899176e+02 1.0363168398e+03 6.1252260000e+02 0.0000e+00 1.0000e+00
  1000022  1    1    2    0    0 +2.6653497361e+02 -4.0103698733e+01 +1.0460552605e+03 1.2417989943e+03 6.1252260000e+02 0.0000e+00 -1.0000e+00
       21  1    1    2  502  501 +2.1516356627e+01 -2.7957534966e+01 +6.8395178194e+01 7.6957636165e+01 0.0000000000e+00 0.0000e+00 -1.0000e+00
<mgrwt>
<rscale>  1 0.67517407E+03</rscale>
<asrwt>0</asrwt>
<pdfrwt beam="1">  1        2 0.32702254E+00 0.67517407E+03</pdfrwt>
<pdfrwt beam="2">  1       -2 0.35296463E-01 0.67517407E+03</pdfrwt>
<totfact> 0.44707078E+01</totfact>
</mgrwt>
</event>
<event>
 5      1 +1.8937969e-08 7.28014000e+02 7.81665300e-03 9.67048900e-02
        1 -1    0    0  502    0 +0.0000000000e+00 +0.0000000000e+00 +1.3366855479e+03 1.3366855479e+03 5.0000000000e-03 0.0000e+00 -1.0000e+00
       -1 -1    0    0    0  501 -0.0000000000e+00 -0.0000000000e+00 -2.5675677469e+03 2.5675677469e+03 5.0000000000e-03 0.0000e+00 1.0000e+00
  1000022  1    1    2    0    0 +3.1675130708e+02 -2.9089259022e+02 +5.1614385845e+01 7.5019855366e+02 6.1252260000e+02 0.0000e+00 -1.0000e+00
  1000022  1    1    2    0    0 -2.8956448755e+02 +2.5836038269e+02 -2.1584936204e+03 2.2770323503e+03 6.1252260000e+02 0.0000e+00 1.0000e+00
       21  1    1    2  502  501 -2.7186819523e+01 +3.2532207529e+01 +8.7599703556e+02 8.7702239081e+02 0.0000000000e+00 0.0000e+00 -1.0000e+00
<mgrwt>
<rscale>  1 0.72801401E+03</rscale>
<asrwt>0</asrwt>
<pdfrwt beam="1">  1        1 0.20564393E+00 0.72801401E+03</pdfrwt>
<pdfrwt beam="2">  1       -1 0.39501042E+00 0.72801401E+03</pdfrwt>
<totfact> 0.72172058E-02</totfact>
</mgrwt>
</event>
<event>
 5      1 +1.8937969e-08 8.70252600e+02 7.81665300e-03 9.46355100e-02
       -3 -1    0    0    0  501 -0.0000000000e+00 +0.0000000000e+00 +3.7099057159e+03 3.7099057171e+03 9.5000000000e-02 0.0000e+00 -1.0000e+00
        3 -1    0    0  502    0 +0.0000000000e+00 -0.0000000000e+00 -2.7511946510e+02 2.7511948150e+02 9.5000000000e-02 0.0000e+00 -1.0000e+00
  1000022  1    1    2    0    0 -5.1093723946e+01 -5.5609056682e+02 +1.6963947008e+03 1.8880641418e+03 6.1252260000e+02 0.0000e+00 1.0000e+00
  1000022  1    1    2    0    0 -2.0165789997e+01 +6.9379865482e+02 +1.7023604769e+03 1.9377766541e+03 6.1252260000e+02 0.0000e+00 1.0000e+00
       21  1    1    2  502  501 +7.1259513944e+01 -1.3770808800e+02 +3.6031073123e+01 1.5918440269e+02 0.0000000000e+00 0.0000e+00 -1.0000e+00
<mgrwt>
<rscale>  1 0.87025260E+03</rscale>
<asrwt>0</asrwt>
<pdfrwt beam="2">  1        3 0.42326077E-01 0.87025260E+03</pdfrwt>
<pdfrwt beam="1">  1       -3 0.57075468E+00 0.87025260E+03</pdfrwt>
<totfact> 0.19492466E-02</totfact>
</mgrwt>
</event>
<event>
 5      1 +1.8937969e-08 7.93267500e+02 7.81665300e-03 9.56981400e-02
       -3 -1    0    0    0  501 -0.0000000000e+00 +0.0000000000e+00 +4.7181796994e+02 4.7181797950e+02 9.5000000000e-02 0.0000e+00 -1.0000e+00
        3 -1    0    0  502    0 +0.0000000000e+00 -0.0000000000e+00 -2.1288728948e+03 2.1288728969e+03 9.5000000000e-02 0.0000e+00 -1.0000e+00
  1000022  1    1    2    0    0 -4.5673644174e+02 -4.2542829133e+02 -8.9405811592e+02 1.2506483352e+03 6.1252260000e+02 0.0000e+00 1.0000e+00
  1000022  1    1    2    0    0 +2.7067320871e+02 +3.5716059423e+02 -2.4835337230e+02 7.9855557667e+02 6.1252260000e+02 0.0000e+00 1.0000e+00
       21  1    1    2  502  501 +1.8606323303e+02 +6.8267697105e+01 -5.1464343666e+02 5.5148696454e+02 0.0000000000e+00 0.0000e+00 1.0000e+00
<mgrwt>
<rscale>  1 0.79326754E+03</rscale>
<asrwt>0</asrwt>
<pdfrwt beam="2">  1        3 0.32751890E+00 0.79326754E+03</pdfrwt>
<pdfrwt beam="1">  1       -3 0.72587382E-01 0.79326754E+03</pdfrwt>
<totfact> 0.13015196E-01</totfact>
</mgrwt>
</event>
<event>
 5      1 +1.8937969e-08 7.98212700e+02 7.81665300e-03 9.56260800e-02
        3 -1    0    0  502    0 +0.0000000000e+00 +0.0000000000e+00 +1.0587386222e+03 1.0587386265e+03 9.5000000000e-02 0.0000e+00 -1.0000e+00
       -3 -1    0    0    0  501 -0.0000000000e+00 -0.0000000000e+00 -7.5318035975e+02 7.5318036574e+02 9.5000000000e-02 0.0000e+00 -1.0000e+00
  1000022  1    1    2    0    0 -4.5084912269e+02 -1.9484885065e+02 +5.1761188102e+02 9.4039194005e+02 6.1252260000e+02 0.0000e+00 1.0000e+00
  1000022  1    1    2    0    0 +4.7485822357e+02 +2.1294029240e+02 -2.3063226473e+02 8.3618722644e+02 6.1252260000e+02 0.0000e+00 1.0000e+00
       21  1    1    2  502  501 -2.4009100874e+01 -1.8091441748e+01 +1.8578646192e+01 3.5339825744e+01 0.0000000000e+00 0.0000e+00 1.0000e+00
<mgrwt>
<rscale>  1 0.79821265E+03</rscale>
<asrwt>0</asrwt>
<pdfrwt beam="1">  1        3 0.16288287E+00 0.79821265E+03</pdfrwt>
<pdfrwt beam="2">  1       -3 0.11587390E+00 0.79821265E+03</pdfrwt>
<totfact> 0.41395468E-01</totfact>
</mgrwt>
</event>
<event>
 5      1 +1.8937969e-08 8.40949600e+02 7.81665300e-03 9.50256500e-02
        3 -1    0    0  502    0 +0.0000000000e+00 +0.0000000000e+00 +3.5508333074e+03 3.5508333087e+03 9.5000000000e-02 0.0000e+00 -1.0000e+00
       -3 -1    0    0    0  501 -0.0000000000e+00 -0.0000000000e+00 -2.3827167589e+02 2.3827169483e+02 9.5000000000e-02 0.0000e+00 -1.0000e+00
  1000022  1    1    2    0    0 -2.5441689350e+02 -5.3941858158e+02 +1.1816677357e+03 1.4585002348e+03 6.1252260000e+02 0.0000e+00 1.0000e+00
  1000022  1    1    2    0    0 +2.8460378123e+02 +4.8856947812e+02 +2.1086226634e+03 2.2674154713e+03 6.1252260000e+02 0.0000e+00 1.0000e+00
       21  1    1    2  502  501 -3.0186887728e+01 +5.0849103461e+01 +2.2271232412e+01 6.3189297406e+01 0.0000000000e+00 0.0000e+00 1.0000e+00
<mgrwt>
<rscale>  1 0.84094964E+03</rscale>
<asrwt>0</asrwt>
<pdfrwt beam="1">  1        3 0.54628204E+00 0.84094964E+03</pdfrwt>
<pdfrwt beam="2">  1       -3 0.36657183E-01 0.84094964E+03</pdfrwt>
<totfact> 0.40914568E-02</totfact>
</mgrwt>
</event>
<event>
 5      1 +1.8937969e-08 8.17763100e+02 7.81665300e-03 9.53465600e-02
       -3 -1    0    0    0  501 -0.0000000000e+00 +0.0000000000e+00 +1.8389473232e+03 1.8389473256e+03 9.5000000000e-02 0.0000e+00 1.0000e+00
       21 -1    0    0  501  502 +0.0000000000e+00 -0.0000000000e+00 -4.5278964431e+02 4.5278964431e+02 0.0000000000e+00 0.0000e+00 1.0000e+00
  1000022  1    1    2    0    0 -2.5782072137e+02 +5.7028844076e+02 +5.0762817701e+02 1.0122108138e+03 6.1252260000e+02 0.0000e+00 -1.0000e+00
  1000022  1    1    2    0    0 +2.3667874804e+02 -4.2662155632e+02 +7.7007729766e+02 1.0982830974e+03 6.1252260000e+02 0.0000e+00 -1.0000e+00
       -3  1    1    2    0  502 +2.1141973331e+01 -1.4366688443e+02 +1.0845220419e+02 1.8124305873e+02 9.5000000000e-02 0.0000e+00 -1.0000e+00
<mgrwt>
<rscale>  1 0.81776309E+03</rscale>
<asrwt>0</asrwt>
<pdfrwt beam="2">  1       21 0.69659946E-01 0.81776309E+03</pdfrwt>
<pdfrwt beam="1">  1       -3 0.28291497E+00 0.81776309E+03</pdfrwt>
<totfact> 0.40479606E+00</totfact>
</mgrwt>
</event>
<event>
 5      1 +1.8937969e-08 7.52625200e+02 7.81665300e-03 9.63124100e-02
       -2 -1    0    0    0  501 -0.0000000000e+00 +0.0000000000e+00 +9.0677879780e+02 9.0677879780e+02 2.5000000000e-03 0.0000e+00 1.0000e+00
        2 -1    0    0  502    0 +0.0000000000e+00 -0.0000000000e+00 -1.9080990822e+03 1.9080990822e+03 2.5000000000e-03 0.0000e+00 -1.0000e+00
  1000022  1    1    2    0    0 +5.2046693479e+02 -2.5275693744e+01 -8.5910245990e+02 1.1767606651e+03 6.1252260000e+02 0.0000e+00 -1.0000e+00
  1000022  1    1    2    0    0 -4.2213259736e+02 +3.8240193754e-02 +5.5841643082e+02 9.3016599429e+02 6.1252260000e+02 0.0000e+00 1.0000e+00
       21  1    1    2  502  501 -9.8334337432e+01 +2.5237453550e+01 -7.0063425536e+02 7.0795122061e+02 0.0000000000e+00 0.0000e+00 -1.0000e+00
<mgrwt>
<rscale>  1 0.75262521E+03</rscale>
<asrwt>0</asrwt>
<pdfrwt beam="2">  1        2 0.29355370E+00 0.75262521E+03</pdfrwt>
<pdfrwt beam="1">  1       -2 0.13950443E+00 0.75262521E+03</pdfrwt>
<totfact> 0.28181578E+00</totfact>
</mgrwt>
</event>
<event>
 5      1 +1.8937969e-08 7.21016000e+02 7.81665300e-03 9.68195200e-02
       -3 -1    0    0    0  501 -0.0000000000e+00 +0.0000000000e+00 +5.9177037200e+02 5.9177037962e+02 9.5000000000e-02 0.0000e+00 -1.0000e+00
        3 -1    0    0  502    0 +0.0000000000e+00 -0.0000000000e+00 -1.7116384717e+03 1.7116384744e+03 9.5000000000e-02 0.0000e+00 -1.0000e+00
  1000022  1    1    2    0    0 +2.2794224110e+02 -2.8572923664e+02 +6.1026641146e+01 7.1589597595e+02 6.1252260000e+02 0.0000e+00 1.0000e+00
  1000022  1    1    2    0    0 -2.8289337537e+02 +2.6091921579e+02 -1.2807181150e+03 1.4708943962e+03 6.1252260000e+02 0.0000e+00 1.0000e+00
       21  1    1    2  502  501 +5.4951134268e+01 +2.4810020845e+01 +9.9823374139e+01 1.1661848188e+02 0.0000000000e+00 0.0000e+00 1.0000e+00
<mgrwt>
<rscale>  1 0.72101602E+03</rscale>
<asrwt>0</asrwt>
<pdfrwt beam="2">  1        3 0.26332899E+00 0.72101602E+03</pdfrwt>
<pdfrwt beam="1">  1       -3 0.91041597E-01 0.72101602E+03</pdfrwt>
<totfact> 0.17697410E-01</totfact>
</mgrwt>
</event>
<event>
 5      1 +1.8937969e-08 6.90486600e+02 7.81665300e-03 9.73364100e-02
       -2 -1    0    0    0  501 -0.0000000000e+00 +0.0000000000e+00 +1.5423469146e+03 1.5423469146e+03 2.5000000000e-03 0.0000e+00 -1.0000e+00
        2 -1    0    0  502    0 +0.0000000000e+00 -0.0000000000e+00 -6.2064520641e+02 6.2064520641e+02 2.5000000000e-03 0.0000e+00 1.0000e+00
  1000022  1    1    2    0    0 -1.3196907175e+02 -3.0245729876e+02 -2.6984351412e+02 7.4625445466e+02 6.1252260000e+02 0.0000e+00 1.0000e+00
  1000022  1    1    2    0    0 +4.9464611901e+01 +2.6886724982e+02 +9.8388126689e+02 1.1907739621e+03 6.1252260000e+02 0.0000e+00 -1.0000e+00
       21  1    1    2  502  501 +8.2504459849e+01 +3.3590048942e+01 +2.0766395542e+02 2.2596370430e+02 0.0000000000e+00 0.0000e+00 1.0000e+00
<mgrwt>
<rscale>  1 0.69048658E+03</rscale>
<asrwt>0</asrwt>
<pdfrwt beam="2">  1        2 0.95483877E-01 0.69048658E+03</pdfrwt>
<pdfrwt beam="1">  1       -2 0.23728414E+00 0.69048658E+03</pdfrwt>
<totfact> 0.37975448E+00</totfact>
</mgrwt>
</event>
<event>
 5      1 +1.8937969e-08 8.80286000e+02 7.81665300e-03 9.45056600e-02
        3 -1    0    0  502    0 +0.0000000000e+00 +0.0000000000e+00 +1.1690609725e+03 1.1690609763e+03 9.5000000000e-02 0.0000e+00 1.0000e+00
       -3 -1    0    0    0  501 -0.0000000000e+00 -0.0000000000e+00 -6.8131939972e+02 6.8131940635e+02 9.5000000000e-02 0.0000e+00 1.0000e+00
  1000022  1    1    2    0    0 -5.3587747481e+02 -3.4102465733e+02 +1.9027434708e+02 9.0269083721e+02 6.1252260000e+02 0.0000e+00 -1.0000e+00
  1000022  1    1    2    0    0 +5.4138991477e+02 +3.2048981606e+02 +2.8563417487e+02 9.2335669131e+02 6.1252260000e+02 0.0000e+00 -1.0000e+00
       21  1    1    2  502  501 -5.5124399653e+00 +2.0534841270e+01 +1.1833050792e+01 2.4332854156e+01 0.0000000000e+00 0.0000e+00 -1.0000e+00
<mgrwt>
<rscale>  1 0.88028604E+03</rscale>
<asrwt>0</asrwt>
<pdfrwt beam="1">  1        3 0.17985553E+00 0.88028604E+03</pdfrwt>
<pdfrwt beam="2">  1       -3 0.10481837E+00 0.88028604E+03</pdfrwt>
<totfact> 0.40035864E-01</totfact>
</mgrwt>
</event>
<event>
 5      1 +1.8937969e-08 8.24983800e+02 7.81665300e-03 9.52454200e-02
        3 -1    0    0  502    0 +0.0000000000e+00 +0.0000000000e+00 +7.5808693798e+02 7.5808694393e+02 9.5000000000e-02 0.0000e+00 -1.0000e+00
       -3 -1    0    0    0  501 -0.0000000000e+00 -0.0000000000e+00 -1.4052274604e+03 1.4052274636e+03 9.5000000000e-02 0.0000e+00 -1.0000e+00
  1000022  1    1    2    0    0 +5.4268555726e+02 -9.8127355638e+01 -7.5351599121e+02 1.1167393951e+03 6.1252260000e+02 0.0000e+00 1.0000e+00
  1000022  1    1    2    0    0 -5.4227915965e+02 +1.1917676907e+02 -1.0571310670e+02 8.3344405074e+02 6.1252260000e+02 0.0000e+00 1.0000e+00
       21  1    1    2  502  501 -4.0639761026e-01 -2.1049413431e+01 +2.1208857552e+02 2.1313096169e+02 0.0000000000e+00 0.0000e+00 -1.0000e+00
<mgrwt>
<rscale>  1 0.82498376E+03</rscale>
<asrwt>0</asrwt>
<pdfrwt beam="1">  1        3 0.11662876E+00 0.82498376E+03</pdfrwt>
<pdfrwt beam="2">  1       -3 0.21618884E+00 0.82498376E+03</pdfrwt>
<totfact> 0.18195926E-01</totfact>
</mgrwt>
</event>
<event>
 5      1 +1.8937969e-08 8.71995100e+02 7.81665300e-03 9.46128200e-02
       -3 -1    0    0    0  501 -0.0000000000e+00 +0.0000000000e+00 +8.5996123705e+02 8.5996124230e+02 9.5000000000e-02 0.0000e+00 1.0000e+00
        3 -1    0    0  502    0 +0.0000000000e+00 -0.0000000000e+00 -1.0864980340e+03 1.0864980381e+03 9.5000000000e-02 0.0000e+00 1.0000e+00
  1000022  1    1    2    0    0 +5.9784965094e+02 -6.1439501886e+01 -1.9021882978e+02 8.7895742573e+02 6.1252260000e+02 0.0000e+00 -1.0000e+00
  1000022  1    1    2    0    0 -6.3892533901e+02 +5.2922210830e+01 -1.9117784832e+02 9.0706077769e+02 6.1252260000e+02 0.0000e+00 -1.0000e+00
       21  1    1    2  502  501 +4.1075688066e+01 +8.5172910565e+00 +1.5485988117e+02 1.6044107701e+02 0.0000000000e+00 0.0000e+00 -1.0000e+00
<mgrwt>
<rscale>  1 0.87199506E+03</rscale>
<asrwt>0</asrwt>
<pdfrwt beam="2">  1        3 0.16715354E+00 0.87199506E+03</pdfrwt>
<pdfrwt beam="1">  1       -3 0.13230173E+00 0.87199506E+03</pdfrwt>
<totfact> 0.27691936E-01</totfact>
</mgrwt>
</event>
<event>
 5      1 +1.8937969e-08 8.84677300e+02 7.81665300e-03 9.44494100e-02
       -3 -1    0    0    0  501 -0.0000000000e+00 +0.0000000000e+00 +7.4368101563e+02 7.4368102170e+02 9.5000000000e-02 0.0000e+00 -1.0000e+00
       21 -1    0    0  501  502 +0.0000000000e+00 -0.0000000000e+00 -1.3205294871e+03 1.3205294871e+03 0.0000000000e+00 0.0000e+00 -1.0000e+00
  1000022  1    1    2    0    0 +2.6816943673e+02 +4.8587646701e+02 -2.4321037109e+02 8.6158343073e+02 6.1252260000e+02 0.0000e+00 1.0000e+00
  1000022  1    1    2    0    0 -3.0467373657e+02 -6.5793006792e+02 -1.7372726470e+02 9.6491614042e+02 6.1252260000e+02 0.0000e+00 1.0000e+00
       -3  1    1    2    0  502 +3.6504299841e+01 +1.7205360092e+02 -1.5991083572e+02 2.3771093770e+02 9.5000000000e-02 0.0000e+00 1.0000e+00
<mgrwt>
<rscale>  1 0.88467732E+03</rscale>
<asrwt>0</asrwt>
<pdfrwt beam="2">  1       21 0.20315838E+00 0.88467732E+03</pdfrwt>
<pdfrwt beam="1">  1       -3 0.11441247E+00 0.88467732E+03</pdfrwt>
<totfact> 0.32061863E+00</totfact>
</mgrwt>
</event>
<event>
 5      1 +1.8937969e-08 6.49905900e+02 7.81665300e-03 9.80695600e-02
        2 -1    0    0  502    0 +0.0000000000e+00 +0.0000000000e+00 +1.8408007675e+03 1.8408007675e+03 2.5000000000e-03 0.0000e+00 -1.0000e+00
       -2 -1    0    0    0  501 -0.0000000000e+00 -0.0000000000e+00 -2.5711293864e+02 2.5711293865e+02 2.5000000000e-03 0.0000e+00 1.0000e+00
  1000022  1    1    2    0    0 +1.6201299429e+02 +1.0861507728e+02 +5.1240449210e+02 8.2206310242e+02 6.1252260000e+02 0.0000e+00 1.0000e+00
  1000022  1    1    2    0    0 -1.9591042218e+02 -1.2219298773e+02 +1.0330316161e+03 1.2229678144e+03 6.1252260000e+02 0.0000e+00 -1.0000e+00
       21  1    1    2  502  501 +3.3897427897e+01 +1.3577910454e+01 +3.8251720690e+01 5.2882789318e+01 0.0000000000e+00 0.0000e+00 -1.0000e+00
<mgrwt>
<rscale>  1 0.64990591E+03</rscale>
<asrwt>0</asrwt>
<pdfrwt beam="1">  1        2 0.28320012E+00 0.64990591E+03</pdfrwt>
<pdfrwt beam="2">  1       -2 0.39555836E-01 0.64990591E+03</pdfrwt>
<totfact> 0.51480102E+01</totfact>
</mgrwt>
</event>
<event>
 5      1 +1.8937969e-08 7.09790000e+02 7.81665300e-03 9.70063500e-02
        2 -1    0    0  502    0 +0.0000000000e+00 +0.0000000000e+00 +3.1047107166e+03 3.1047107166e+03 2.5000000000e-03 0.0000e+00 -1.0000e+00
       -2 -1    0    0    0  501 -0.0000000000e+00 -0.0000000000e+00 -2.6795135409e+02 2.6795135410e+02 2.5000000000e-03 0.0000e+00 1.0000e+00
  1000022  1    1    2    0    0 -3.4818216783e+02 -4.5613250218e+01 +2.2534566061e+03 2.3614745397e+03 6.1252260000e+02 0.0000e+00 -1.0000e+00
  1000022  1    1    2    0    0 +3.6129252978e+02 -4.4612761475e+00 +3.8999310082e+02 8.1106766010e+02 6.1252260000e+02 0.0000e+00 1.0000e+00
       21  1    1    2  502  501 -1.3110361952e+01 +5.0074526366e+01 +1.9330965560e+02 2.0011987090e+02 0.0000000000e+00 0.0000e+00 -1.0000e+00
<mgrwt>
<rscale>  1 0.70978996E+03</rscale>
<asrwt>0</asrwt>
<pdfrwt beam="1">  1        2 0.47764778E+00 0.70978996E+03</pdfrwt>
<pdfrwt beam="2">  1       -2 0.41223288E-01 0.70978996E+03</pdfrwt>
<totfact> 0.89571011E+00</totfact>
</mgrwt>
</event>
<event>
 5      1 +1.8937969e-08 8.21763800e+02 7.81665300e-03 9.52903800e-02
       -3 -1    0    0    0  501 -0.0000000000e+00 +0.0000000000e+00 +2.3407942480e+03 2.3407942499e+03 9.5000000000e-02 0.0000e+00 1.0000e+00
        3 -1    0    0  502    0 +0.0000000000e+00 -0.0000000000e+00 -3.4394482364e+02 3.4394483676e+02 9.5000000000e-02 0.0000e+00 1.0000e+00
  1000022  1    1    2    0    0 +4.7484932737e+02 +2.8259157267e+02 +1.3893243127e+03 1.6157802642e+03 6.1252260000e+02 0.0000e+00 -1.0000e+00
  1000022  1    1    2    0    0 -4.4394330650e+02 -3.1804522651e+02 +5.2566558235e+02 9.7454946795e+02 6.1252260000e+02 0.0000e+00 -1.0000e+00
       21  1    1    2  502  501 -3.0906020866e+01 +3.5453653844e+01 +8.1859529289e+01 9.4409354580e+01 0.0000000000e+00 0.0000e+00 -1.0000e+00
<mgrwt>
<rscale>  1 0.82176379E+03</rscale>
<asrwt>0</asrwt>
<pdfrwt beam="2">  1        3 0.52914590E-01 0.82176379E+03</pdfrwt>
<pdfrwt beam="1">  1       -3 0.36012219E+00 0.82176379E+03</pdfrwt>
<totfact> 0.16526230E-01</totfact>
</mgrwt>
</event>
<event>
 5      1 +1.8937969e-08 8.70632300e+02 7.81665300e-03 9.46305600e-02
       -3 -1    0    0    0  501 -0.0000000000e+00 +0.0000000000e+00 +2.6059600161e+03 2.6059600178e+03 9.5000000000e-02 0.0000e+00 -1.0000e+00
       21 -1    0    0  501  502 +0.0000000000e+00 -0.0000000000e+00 -3.4335238491e+02 3.4335238491e+02 0.0000000000e+00 0.0000e+00 -1.0000e+00
  1000022  1    1    2    0    0 -5.8573430194e+02 -7.1745428820e+01 +1.0811560115e+03 1.3756141667e+03 6.1252260000e+02 0.0000e+00 1.0000e+00
  1000022  1    1    2    0    0 +6.5571785388e+02 -4.9542563242e+01 +1.0434353093e+03 1.3770844381e+03 6.1252260000e+02 0.0000e+00 1.0000e+00
       -3  1    1    2    0  502 -6.9983551940e+01 +1.2128799206e+02 +1.3801631038e+02 1.9661379788e+02 9.5000000000e-02 0.0000e+00 1.0000e+00
<mgrwt>
<rscale>  1 0.87063233E+03</rscale>
<asrwt>0</asrwt>
<pdfrwt beam="2">  1       21 0.52823446E-01 0.87063233E+03</pdfrwt>
<pdfrwt beam="1">  1       -3 0.40091691E+00 0.87063233E+03</pdfrwt>
<totfact> 0.16603066E+00</totfact>
</mgrwt>
</event>
<event>
 5      1 +1.8937969e-08 8.75451800e+02 7.81665300e-03 9.45679900e-02
        3 -1    0    0  502    0 -0.0000000000e+00 +0.0000000000e+00 +6.8727468710e+02 6.8727469367e+02 9.5000000000e-02 0.0000e+00 1.0000e+00
       21 -1    0    0  501  502 +0.0000000000e+00 -0.0000000000e+00 -1.2524902083e+03 1.2524902083e+03 0.0000000000e+00 0.0000e+00 1.0000e+00
  1000022  1    1    2    0    0 -2.0778639471e+02 -6.0595508128e+02 -1.5581817047e+02 8.9989998562e+02 6.1252260000e+02 0.0000e+00 -1.0000e+00
  1000022  1    1    2    0    0 +1.2845686681e+02 +5.9630581983e+02 -3.2469337404e+02 9.2341297373e+02 6.1252260000e+02 0.0000e+00 -1.0000e+00
        3  1    1    2  501    0 +7.9329527905e+01 +9.6492614504e+00 -8.4703976645e+01 1.1645194257e+02 9.5000000000e-02 0.0000e+00 -1.0000e+00
<mgrwt>
<rscale>  1 0.87545183E+03</rscale>
<asrwt>0</asrwt>
<pdfrwt beam="2">  1       21 0.19269080E+00 0.87545183E+03</pdfrwt>
<pdfrwt beam="1">  1        3 0.10573457E+00 0.87545183E+03</pdfrwt>
<totfact> 0.45936184E+00</totfact>
</mgrwt>
</event>
<event>
 5      1 +1.8937969e-08 7.83427000e+02 7.81665300e-03 9.58432000e-02
       21 -1    0    0  501  502 +0.0000000000e+00 +0.0000000000e+00 +4.8678041354e+02 4.8678041354e+02 0.0000000000e+00 0.0000e+00 -1.0000e+00
       -3 -1    0    0    0  501 -0.0000000000e+00 -0.0000000000e+00 -1.8334492340e+03 1.8334492365e+03 9.5000000000e-02 0.0000e+00 -1.0000e+00
  1000022  1    1    2    0    0 +4.2341892281e+02 +2.7686139954e+02 -1.2155394579e+02 8.0367600188e+02 6.1252260000e+02 0.0000e+00 -1.0000e+00
  1000022  1    1    2    0    0 -4.5385666716e+02 -1.7111072217e+02 -1.0336298318e+03 1.2957003196e+03 6.1252260000e+02 0.0000e+00 -1.0000e+00
       -3  1    1    2    0  502 +3.0437744347e+01 -1.0575067737e+02 -1.9148504291e+02 2.2085332854e+02 9.5000000000e-02 0.0000e+00 1.0000e+00
<mgrwt>
<rscale>  1 0.78342704E+03</rscale>
<asrwt>0</asrwt>
<pdfrwt beam="1">  1       21 0.74889295E-01 0.78342704E+03</pdfrwt>
<pdfrwt beam="2">  1       -3 0.28206911E+00 0.78342704E+03</pdfrwt>
<totfact> 0.34893079E+00</totfact>
</mgrwt>
</event>
<event>
 5      1 +1.8937969e-08 6.31847500e+02 7.81665300e-03 9.84145000e-02
       -1 -1    0    0    0  501 -0.0000000000e+00 +0.0000000000e+00 +2.3656919460e+02 2.3656919465e+02 5.0000000000e-03 0.0000e+00 1.0000e+00
        1 -1    0    0  502    0 +0.0000000000e+00 -0.0000000000e+00 -2.3669689193e+03 2.3669689193e+03 5.0000000000e-03 0.0000e+00 -1.0000e+00
  1000022  1    1    2    0    0 +1.4170747729e+02 +6.1681032025e+01 -1.6595092350e+03 1.7756802627e+03 6.1252260000e+02 0.0000e+00 -1.0000e+00
  1000022  1    1    2    0    0 -1.3280129967e+02 -8.5540714960e+01 -4.8647998481e+02 7.9799756281e+02 6.1252260000e+02 0.0000e+00 1.0000e+00
       21  1    1    2  502  501 -8.9061776227e+00 +2.3859682936e+01 +1.5589495091e+01 2.9860288459e+01 0.0000000000e+00 0.0000e+00 1.0000e+00
<mgrwt>
<rscale>  1 0.63184747E+03</rscale>
<asrwt>0</asrwt>
<pdfrwt beam="2">  1        1 0.36414905E+00 0.63184747E+03</pdfrwt>
<pdfrwt beam="1">  1       -1 0.36395262E-01 0.63184747E+03</pdfrwt>
<totfact> 0.12966810E+01</totfact>
</mgrwt>
</event>
<event>
 5      1 +1.8937969e-08 8.07779200e+02 7.81665300e-03 9.54882500e-02
       21 -1    0    0  501  502 +0.0000000000e+00 +0.0000000000e+00 +1.2967024959e+03 1.2967024959e+03 0.0000000000e+00 0.0000e+00 -1.0000e+00
        3 -1    0    0  502    0 -0.0000000000e+00 -0.0000000000e+00 -8.8616257866e+02 8.8616258375e+02 9.5000000000e-02 0.0000e+00 -1.0000e+00
  1000022  1    1    2    0    0 -2.5319293384e+02 -4.3766574354e+02 +4.1168504867e+02 8.9460968004e+02 6.1252260000e+02 0.0000e+00 1.0000e+00
  1000022  1    1    2    0    0 +3.1148850606e+02 +4.3566637632e+02 -3.8490191356e+02 9.0009093954e+02 6.1252260000e+02 0.0000e+00 1.0000e+00
        3  1    1    2  501    0 -5.8295572227e+01 +1.9993672195e+00 +3.8375678210e+02 3.8816446005e+02 9.5000000000e-02 0.0000e+00 1.0000e+00
<mgrwt>
<rscale>  1 0.80777923E+03</rscale>
<asrwt>0</asrwt>
<pdfrwt beam="1">  1       21 0.19949269E+00 0.80777923E+03</pdfrwt>
<pdfrwt beam="2">  1        3 0.13633270E+00 0.80777923E+03</pdfrwt>
<totfact> 0.22427314E+00</totfact>
</mgrwt>
</event>
<event>
 5      1 +1.8937969e-08 7.82806800e+02 7.81665300e-03 9.58524200e-02
       21 -1    0    0  501  502 +0.0000000000e+00 +0.0000000000e+00 +1.8730138425e+03 1.8730138425e+03 0.0000000000e+00 0.0000e+00 -1.0000e+00
        3 -1    0    0  502    0 -0.0000000000e+00 -0.0000000000e+00 -4.6455788355e+02 4.6455789327e+02 9.5000000000e-02 0.0000e+00 -1.0000e+00
  1000022  1    1    2    0    0 -6.1587391675e+01 -4.6042259699e+02 +1.0549707104e+03 1.3053463563e+03 6.1252260000e+02 0.0000e+00 1.0000e+00
  1000022  1    1    2    0    0 +8.6037786003e+01 +4.8898077308e+02 +1.2217734625e+02 7.9788215703e+02 6.1252260000e+02 0.0000e+00 1.0000e+00
        3  1    1    2  501    0 -2.4450394328e+01 -2.8558176094e+01 +2.3130790234e+02 2.3434322247e+02 9.5000000000e-02 0.0000e+00 1.0000e+00
<mgrwt>
<rscale>  1 0.78280680E+03</rscale>
<asrwt>0</asrwt>
<pdfrwt beam="1">  1       21 0.28815597E+00 0.78280680E+03</pdfrwt>
<pdfrwt beam="2">  1        3 0.71470446E-01 0.78280680E+03</pdfrwt>
<totfact> 0.27878224E+00</totfact>
</mgrwt>
</event>
<event>
 5      1 +1.8937969e-08 1.61875900e+03 7.81665300e-03 8.80910600e-02
        2 -1    0    0  502    0 +0.0000000000e+00 +0.0000000000e+00 +1.4862551432e+03 1.4862551432e+03 2.5000000000e-03 0.0000e+00 -1.0000e+00
       -2 -1    0    0    0  501 -0.0000000000e+00 -0.0000000000e+00 -2.1138695909e+03 2.1138695909e+03 2.5000000000e-03 0.0000e+00 1.0000e+00
  1000022  1    1    2    0    0 +9.5315946893e+02 +1.1512419600e+03 +2.7396471082e+02 1.6383258595e+03 6.1252260000e+02 0.0000e+00 1.0000e+00
  1000022  1    1    2    0    0 -9.7601407064e+02 -1.1461478329e+03 -7.1809006815e+02 1.7768217700e+03 6.1252260000e+02 0.0000e+00 -1.0000e+00
       21  1    1    2  502  501 +2.2854601709e+01 -5.0941270779e+00 -1.8348909030e+02 1.8497710455e+02 0.0000000000e+00 0.0000e+00 -1.0000e+00
<mgrwt>
<rscale>  1 0.16187586E+04</rscale>
<asrwt>0</asrwt>
<pdfrwt beam="1">  1        2 0.22865464E+00 0.16187586E+04</pdfrwt>
<pdfrwt beam="2">  1       -2 0.32521070E+00 0.16187586E+04</pdfrwt>
<totfact> 0.26711075E-01</totfact>
</mgrwt>
</event>
<event>
 5      1 +1.8937969e-08 7.50221700e+02 7.81665300e-03 9.63500300e-02
       -2 -1    0    0    0  501 -0.0000000000e+00 +0.0000000000e+00 +5.0648546596e+02 5.0648546597e+02 2.5000000000e-03 0.0000e+00 1.0000e+00
        2 -1    0    0  502    0 +0.0000000000e+00 -0.0000000000e+00 -1.9943018369e+03 1.9943018369e+03 2.5000000000e-03 0.0000e+00 -1.0000e+00
  1000022  1    1    2    0    0 -2.3887501799e+02 +1.2538542693e+02 -1.0626416498e+03 1.2558558798e+03 6.1252260000e+02 0.0000e+00 -1.0000e+00
  1000022  1    1    2    0    0 +3.8162232910e+02 -3.1119047026e+02 -3.1181772658e+01 7.8653121318e+02 6.1252260000e+02 0.0000e+00 1.0000e+00
       21  1    1    2  502  501 -1.4274731111e+02 +1.8580504333e+02 -3.9399294848e+02 4.5840020987e+02 0.0000000000e+00 0.0000e+00 -1.0000e+00
<mgrwt>
<rscale>  1 0.75022169E+03</rscale>
<asrwt>0</asrwt>
<pdfrwt beam="2">  1        2 0.30681566E+00 0.75022169E+03</pdfrwt>
<pdfrwt beam="1">  1       -2 0.77920842E-01 0.75022169E+03</pdfrwt>
<totfact> 0.10216978E+01</totfact>
</mgrwt>
</event>
<event>
 5      1 +1.8937969e-08 6.12801700e+02 7.81665300e-03 9.87919700e-02
        2 -1    0    0  502    0 +0.0000000000e+00 +0.0000000000e+00 +2.4658921786e+03 2.4658921786e+03 2.5000000000e-03 0.0000e+00 -1.0000e+00
       -2 -1    0    0    0  501 -0.0000000000e+00 -0.0000000000e+00 -4.7562621947e+02 4.7562621947e+02 2.5000000000e-03 0.0000e+00 1.0000e+00
  1000022  1    1    2    0    0 -1.5115476097e+01 +3.2551053529e+01 +4.7930702700e+02 7.7859309678e+02 6.1252260000e+02 0.0000e+00 -1.0000e+00
  1000022  1    1    2    0    0 +1.8234297311e+01 +5.2074594023e+00 -3.7538238882e+01 6.1396470755e+02 6.1252260000e+02 0.0000e+00 1.0000e+00
       21  1    1    2  502  501 -3.1188212142e+00 -3.7758512931e+01 +1.5484971710e+03 1.5489605937e+03 0.0000000000e+00 0.0000e+00 -1.0000e+00
<mgrwt>
<rscale>  1 0.61280174E+03</rscale>
<asrwt>0</asrwt>
<pdfrwt beam="1">  1        2 0.37936804E+00 0.61280174E+03</pdfrwt>
<pdfrwt beam="2">  1       -2 0.73173263E-01 0.61280174E+03</pdfrwt>
<totfact> 0.66143587E+00</totfact>
</mgrwt>
</event>
<event>
 5      1 +1.8937969e-08 7.33866300e+02 7.81665300e-03 9.66100700e-02
        3 -1    0    0  502    0 +0.0000000000e+00 +0.0000000000e+00 +1.4300022083e+03 1.4300022114e+03 9.5000000000e-02 0.0000e+00 -1.0000e+00
       -3 -1    0    0    0  501 -0.0000000000e+00 -0.0000000000e+00 -4.2053190190e+02 4.2053191263e+02 9.5000000000e-02 0.0000e+00 -1.0000e+00
  1000022  1    1    2    0    0 +2.6982293078e+02 -2.9324359601e+02 +3.1598585130e+02 7.9613266125e+02 6.1252260000e+02 0.0000e+00 1.0000e+00
  1000022  1    1    2    0    0 -2.9783090733e+02 +2.8539595463e+02 +5.8505882739e+02 9.4214216937e+02 6.1252260000e+02 0.0000e+00 1.0000e+00
       21  1    1    2  502  501 +2.8007976548e+01 +7.8476413751e+00 +1.0842562770e+02 1.1225929346e+02 0.0000000000e+00 0.0000e+00 -1.0000e+00
<mgrwt>
<rscale>  1 0.73386627E+03</rscale>
<asrwt>0</asrwt>
<pdfrwt beam="1">  1        3 0.22000035E+00 0.73386627E+03</pdfrwt>
<pdfrwt beam="2">  1       -3 0.64697215E-01 0.73386627E+03</pdfrwt>
<totfact> 0.67204513E-01</totfact>
</mgrwt>
</event>
<event>
 5      1 +1.8937969e-08 6.91541500e+02 7.81665300e-03 9.73180800e-02
        3 -1    0    0  502    0 +0.0000000000e+00 +0.0000000000e+00 +1.7450882853e+03 1.7450882879e+03 9.5000000000e-02 0.0000e+00 -1.0000e+00
       -3 -1    0    0    0  501 -0.0000000000e+00 -0.0000000000e+00 -4.5517254213e+02 4.5517255205e+02 9.5000000000e-02 0.0000e+00 -1.0000e+00
  1000022  1    1    2    0    0 -2.1621383885e+02 +2.3555227566e+02 -3.5554260095e+01 6.9186800736e+02 6.1252260000e+02 0.0000e+00 1.0000e+00
  1000022  1    1    2    0    0 +2.3872668143e+02 -2.2354988700e+02 +1.2830403130e+03 1.4588836008e+03 6.1252260000e+02 0.0000e+00 1.0000e+00
       21  1    1    2  502  501 -2.2512842581e+01 -1.2002388663e+01 +4.2429690254e+01 4.9509231762e+01 0.0000000000e+00 0.0000e+00 -1.0000e+00
<mgrwt>
<rscale>  1 0.69154150E+03</rscale>
<asrwt>0</asrwt>
<pdfrwt beam="1">  1        3 0.26847512E+00 0.69154150E+03</pdfrwt>
<pdfrwt beam="2">  1       -3 0.70026546E-01 0.69154150E+03</pdfrwt>
<totfact> 0.29912748E-01</totfact>
</mgrwt>
</event>
<event>
 5      1 +1.8937969e-08 8.56661300e+02 7.81665300e-03 9.48144000e-02
       -3 -1    0    0    0  501 -0.0000000000e+00 +0.0000000000e+00 +1.7970981365e+03 1.7970981391e+03 9.5000000000e-02 0.0000e+00 1.0000e+00
        3 -1    0    0  502    0 +0.0000000000e+00 -0.0000000000e+00 -4.3592650094e+02 4.3592651129e+02 9.5000000000e-02 0.0000e+00 1.0000e+00
  1000022  1    1    2    0    0 +5.5965586207e+02 +2.6260683219e+02 +7.8601647650e+02 1.1726819130e+03 6.1252260000e+02 0.0000e+00 -1.0000e+00
  1000022  1    1    2    0    0 -5.2210197802e+02 -2.6186513119e+02 +5.1914650632e+02 9.9290525878e+02 6.1252260000e+02 0.0000e+00 -1.0000e+00
       21  1    1    2  502  501 -3.7553884046e+01 -7.4170100741e-01 +5.6008652784e+01 6.7437478556e+01 0.0000000000e+00 0.0000e+00 -1.0000e+00
<mgrwt>
<rscale>  1 0.85666126E+03</rscale>
<asrwt>0</asrwt>
<pdfrwt beam="2">  1        3 0.67065617E-01 0.85666126E+03</pdfrwt>
<pdfrwt beam="1">  1       -3 0.27647663E+00 0.85666126E+03</pdfrwt>
<totfact> 0.28853724E-01</totfact>
</mgrwt>
</event>
<event>
 5      1 +1.8937969e-08 8.61208400e+02 7.81665300e-03 9.47541600e-02
       -3 -1    0    0    0  501 -0.0000000000e+00 +0.0000000000e+00 +9.1741759632e+02 9.1741760124e+02 9.5000000000e-02 0.0000e+00 1.0000e+00
        3 -1    0    0  502    0 +0.0000000000e+00 -0.0000000000e+00 -1.5754998366e+03 1.5754998395e+03 9.5000000000e-02 0.0000e+00 1.0000e+00
  1000022  1    1    2    0    0 -3.9152424019e+01 +7.1537181857e+02 -5.3753867402e+02 1.0850905551e+03 6.1252260000e+02 0.0000e+00 -1.0000e+00
  1000022  1    1    2    0    0 -7.9870232686e+01 -5.1553085444e+02 -5.1115015302e+02 9.5321022361e+02 6.1252260000e+02 0.0000e+00 -1.0000e+00
       21  1    1    2  502  501 +1.1902265670e+02 -1.9984096414e+02 +3.9060658678e+02 4.5461666202e+02 0.0000000000e+00 0.0000e+00 1.0000e+00
<mgrwt>
<rscale>  1 0.86120839E+03</rscale>
<asrwt>0</asrwt>
<pdfrwt beam="2">  1        3 0.24238459E+00 0.86120839E+03</pdfrwt>
<pdfrwt beam="1">  1       -3 0.14114117E+00 0.86120839E+03</pdfrwt>
<totfact> 0.79319276E-02</totfact>
</mgrwt>
</event>
<event>
 5      1 +1.8937969e-08 9.98737400e+02 7.81665300e-03 9.38504100e-02
        3 -1    0    0  502    0 -0.0000000000e+00 +0.0000000000e+00 +9.1654235946e+02 9.1654236438e+02 9.5000000000e-02 0.0000e+00 1.0000e+00
       21 -1    0    0  501  502 +0.0000000000e+00 -0.0000000000e+00 -2.1891720326e+03 2.1891720326e+03 0.0000000000e+00 0.0000e+00 1.0000e+00
  1000022  1    1    2    0    0 -6.3692192422e+02 +6.7922948294e+02 -6.4230817058e+01 1.1163922973e+03 6.1252260000e+02 0.0000e+00 -1.0000e+00
  1000022  1    1    2    0    0 -9.8655985645e+01 -4.4100146919e+02 -3.6183664682e+02 8.4280780361e+02 6.1252260000e+02 0.0000e+00 -1.0000e+00
        3  1    1    2  501    0 +7.3557790986e+02 -2.3822801375e+02 -8.4656220929e+02 1.1465142961e+03 9.5000000000e-02 0.0000e+00 -1.0000e+00
<mgrwt>
<rscale>  1 0.93317002E+03</rscale>
<asrwt>0</asrwt>
<pdfrwt beam="2">  1       21 0.33679569E+00 0.99873740E+03</pdfrwt>
<pdfrwt beam="1">  1        3 0.14100652E+00 0.99873740E+03</pdfrwt>
<totfact> 0.26458636E-01</totfact>
</mgrwt>
</event>
<event>
 5      1 +1.8937969e-08 8.67480200e+02 7.81665300e-03 9.46717100e-02
        3 -1    0    0  502    0 +0.0000000000e+00 +0.0000000000e+00 +5.3346765600e+02 5.3346766446e+02 9.5000000000e-02 0.0000e+00 -1.0000e+00
       -3 -1    0    0    0  501 -0.0000000000e+00 -0.0000000000e+00 -2.3149248511e+03 2.3149248530e+03 9.5000000000e-02 0.0000e+00 -1.0000e+00
  1000022  1    1    2    0    0 -5.3842889252e+02 +2.3254694227e+02 -7.6831314712e+02 1.1443219740e+03 6.1252260000e+02 0.0000e+00 1.0000e+00
  1000022  1    1    2    0    0 +5.6022350349e+02 -3.0234638838e+02 -1.2076440149e+03 1.4962792903e+03 6.1252260000e+02 0.0000e+00 1.0000e+00
       21  1    1    2  502  501 -2.1794610976e+01 +6.9799446106e+01 +1.9449996695e+02 2.0779125315e+02 0.0000000000e+00 0.0000e+00 1.0000e+00
<mgrwt>
<rscale>  1 0.86748022E+03</rscale>
<asrwt>0</asrwt>
<pdfrwt beam="1">  1        3 0.82071949E-01 0.86748022E+03</pdfrwt>
<pdfrwt beam="2">  1       -3 0.35614228E+00 0.86748022E+03</pdfrwt>
<totfact> 0.66804597E-02</totfact>
</mgrwt>
</event>
<event>
 5      1 +1.8937969e-08 7.31183400e+02 7.81665300e-03 9.66534200e-02
        2 -1    0    0  502    0 +0.0000000000e+00 +0.0000000000e+00 +1.4403573720e+03 1.4403573720e+03 2.5000000000e-03 0.0000e+00 -1.0000e+00
       -2 -1    0    0    0  501 -0.0000000000e+00 -0.0000000000e+00 -4.4394920797e+02 4.4394920798e+02 2.5000000000e-03 0.0000e+00 1.0000e+00
  1000022  1    1    2    0    0 -3.5514116755e+02 +1.8489399447e+02 +2.2882089441e+02 7.6671635910e+02 6.1252260000e+02 0.0000e+00 1.0000e+00
  1000022  1    1    2    0    0 +3.6556011504e+02 -1.5804679927e+02 +5.9394798504e+02 9.4157906355e+02 6.1252260000e+02 0.0000e+00 -1.0000e+00
       21  1    1    2  502  501 -1.0418947491e+01 -2.6847195205e+01 +1.7363928460e+02 1.7601115736e+02 0.0000000000e+00 0.0000e+00 -1.0000e+00
<mgrwt>
<rscale>  1 0.73118342E+03</rscale>
<asrwt>0</asrwt>
<pdfrwt beam="1">  1        2 0.22159344E+00 0.73118342E+03</pdfrwt>
<pdfrwt beam="2">  1       -2 0.68299880E-01 0.73118342E+03</pdfrwt>
<totfact> 0.27578003E+01</totfact>
</mgrwt>
</event>
<event>
 5      1 +1.8937969e-08 8.47907400e+02 7.81665300e-03 9.49315000e-02
        1 -1    0    0  502    0 +0.0000000000e+00 +0.0000000000e+00 +5.7477067385e+02 5.7477067387e+02 5.0000000000e-03 0.0000e+00 -1.0000e+00
       -1 -1    0    0    0  501 -0.0000000000e+00 -0.0000000000e+00 -1.3770509125e+03 1.3770509125e+03 5.0000000000e-03 0.0000e+00 -1.0000e+00
  1000022  1    1    2    0    0 +4.6214426226e+02 -3.8280209373e+02 -6.3743598493e+02 1.0684677499e+03 6.1252260000e+02 0.0000e+00 1.0000e+00
  1000022  1    1    2    0    0 -4.4652259912e+02 +3.6736065646e+02 -1.4701557156e+02 8.5506362174e+02 6.1252260000e+02 0.0000e+00 1.0000e+00
       21  1    1    2  502  501 -1.5621663145e+01 +1.5441437270e+01 -1.7828682163e+01 2.8290214776e+01 0.0000000000e+00 0.0000e+00 -1.0000e+00
<mgrwt>
<rscale>  1 0.84790741E+03</rscale>
<asrwt>0</asrwt>
<pdfrwt beam="1">  1        1 0.88426257E-01 0.84790741E+03</pdfrwt>
<pdfrwt beam="2">  1       -1 0.21185399E+00 0.84790741E+03</pdfrwt>
<totfact> 0.46559836E+00</totfact>
</mgrwt>
</event>
<event>
 5      1 +1.8937969e-08 8.01044600e+02 7.81665300e-03 9.55850600e-02
       -3 -1    0    0    0  501 -0.0000000000e+00 +0.0000000000e+00 +8.2325339400e+02 8.2325339948e+02 9.5000000000e-02 0.0000e+00 1.0000e+00
        3 -1    0    0  502    0 +0.0000000000e+00 -0.0000000000e+00 -1.1396919593e+03 1.1396919633e+03 9.5000000000e-02 0.0000e+00 -1.0000e+00
  1000022  1    1    2    0    0 -4.7360108551e+02 +2.2482831656e+02 +3.5559866050e+02 8.8118108411e+02 6.1252260000e+02 0.0000e+00 1.0000e+00
  1000022  1    1    2    0    0 +4.7345939777e+02 -1.9995605877e+02 -6.8574509203e+02 1.0533643688e+03 6.1252260000e+02 0.0000e+00 -1.0000e+00
       21  1    1    2  502  501 +1.4168774004e-01 -2.4872257790e+01 +1.3707866195e+01 2.8399909834e+01 0.0000000000e+00 0.0000e+00 -1.0000e+00
<mgrwt>
<rscale>  1 0.80104463E+03</rscale>
<asrwt>0</asrwt>
<pdfrwt beam="2">  1        3 0.17533723E+00 0.80104463E+03</pdfrwt>
<pdfrwt beam="1">  1       -3 0.12665437E+00 0.80104463E+03</pdfrwt>
<totfact> 0.27255962E-01</totfact>
</mgrwt>
</event>
<event>
 5      1 +1.8937969e-08 8.34524700e+02 7.81665300e-03 9.51134600e-02
       -3 -1    0    0    0  501 -0.0000000000e+00 +0.0000000000e+00 +1.0576205368e+03 1.0576205411e+03 9.5000000000e-02 0.0000e+00 -1.0000e+00
        3 -1    0    0  502    0 +0.0000000000e+00 -0.0000000000e+00 -7.7004627073e+02 7.7004627659e+02 9.5000000000e-02 0.0000e+00 -1.0000e+00
  1000022  1    1    2    0    0 -5.9847003155e+02 -5.3297247816e+01 +3.4296608424e+02 9.2402199418e+02 6.1252260000e+02 0.0000e+00 1.0000e+00
  1000022  1    1    2    0    0 +5.4448884844e+02 +5.6705909744e+01 -1.0753912955e+02 8.2851207968e+02 6.1252260000e+02 0.0000e+00 1.0000e+00
       21  1    1    2  502  501 +5.3981183109e+01 -3.4086619281e+00 +5.2147311374e+01 7.5132743790e+01 0.0000000000e+00 0.0000e+00 -1.0000e+00
<mgrwt>
<rscale>  1 0.83452470E+03</rscale>
<asrwt>0</asrwt>
<pdfrwt beam="2">  1        3 0.11846866E+00 0.83452470E+03</pdfrwt>
<pdfrwt beam="1">  1       -3 0.16271085E+00 0.83452470E+03</pdfrwt>
<totfact> 0.39176315E-01</totfact>
</mgrwt>
</event>
<event>
 5      1 +1.8937969e-08 1.39682700e+03 7.81665300e-03 8.95611900e-02
        2 -1    0    0  502    0 +0.0000000000e+00 +0.0000000000e+00 +1.6012957686e+03 1.6012957686e+03 2.5000000000e-03 0.0000e+00 -1.0000e+00
       -2 -1    0    0    0  501 -0.0000000000e+00 -0.0000000000e+00 -1.4855833177e+03 1.4855833177e+03 2.5000000000e-03 0.0000e+00 1.0000e+00
  1000022  1    1    2    0    0 -1.2487239644e+03 -5.7909853932e+01 +4.5338442192e+02 1.4640377250e+03 6.1252260000e+02 0.0000e+00 -1.0000e+00
  1000022  1    1    2    0    0 +1.2611310106e+03 +7.7337139873e+01 -1.2585252815e+02 1.4097713479e+03 6.1252260000e+02 0.0000e+00 1.0000e+00
       21  1    1    2  502  501 -1.2407046127e+01 -1.9427285941e+01 -2.1181944286e+02 2.1307001339e+02 0.0000000000e+00 0.0000e+00 -1.0000e+00
<mgrwt>
<rscale>  1 0.13968266E+04</rscale>
<asrwt>0</asrwt>
<pdfrwt beam="1">  1        2 0.24635319E+00 0.13968266E+04</pdfrwt>
<pdfrwt beam="2">  1       -2 0.22855128E+00 0.13968266E+04</pdfrwt>
<totfact> 0.92308156E-01</totfact>
</mgrwt>
</event>
<event>
 5      1 +1.8937969e-08 7.46717800e+02 7.81665300e-03 9.64051400e-02
       21 -1    0    0  501  502 +0.0000000000e+00 +0.0000000000e+00 +8.9107142009e+02 8.9107142009e+02 0.0000000000e+00 0.0000e+00 1.0000e+00
        3 -1    0    0  502    0 -0.0000000000e+00 -0.0000000000e+00 -1.2942093582e+03 1.2942093617e+03 9.5000000000e-02 0.0000e+00 1.0000e+00
  1000022  1    1    2    0    0 -2.2746196648e+02 +3.4001849341e+02 +1.2916239992e+02 7.4780905525e+02 6.1252260000e+02 0.0000e+00 -1.0000e+00
  1000022  1    1    2    0    0 +2.8219331699e+02 -3.2932864457e+02 -8.3902647582e+02 1.1257174543e+03 6.1252260000e+02 0.0000e+00 -1.0000e+00
        3  1    1    2  501    0 -5.4731350507e+01 -1.0689848839e+01 +3.0672613781e+02 3.1175427221e+02 9.5000000000e-02 0.0000e+00 -1.0000e+00
<mgrwt>
<rscale>  1 0.74671784E+03</rscale>
<asrwt>0</asrwt>
<pdfrwt beam="1">  1       21 0.13708791E+00 0.74671784E+03</pdfrwt>
<pdfrwt beam="2">  1        3 0.19910913E+00 0.74671784E+03</pdfrwt>
<totfact> 0.24257120E+00</totfact>
</mgrwt>
</event>
<event>
 5      1 +1.8937969e-08 8.53247100e+02 7.81665300e-03 9.54033900e-02
       21 -1    0    0  501  502 +0.0000000000e+00 +0.0000000000e+00 +2.8629972553e+02 2.8629972553e+02 0.0000000000e+00 0.0000e+00 1.0000e+00
        1 -1    0    0  502    0 -0.0000000000e+00 -0.0000000000e+00 -2.1301237051e+03 2.1301237051e+03 5.0000000000e-03 0.0000e+00 -1.0000e+00
  1000022  1    1    2    0    0 -2.9731512601e+02 -1.3839238782e+02 -6.8115232323e+02 9.7298569368e+02 6.1252260000e+02 0.0000e+00 -1.0000e+00
  1000022  1    1    2    0    0 +3.3794690258e+02 +9.4043233293e+01 -7.6362806586e+02 1.0398865309e+03 6.1252260000e+02 0.0000e+00 1.0000e+00
        1  1    1    2  501    0 -4.0631776578e+01 +4.4349154531e+01 -3.9904359051e+02 4.0355120607e+02 5.0000000000e-03 0.0000e+00 -1.0000e+00
<mgrwt>
<rscale>  1 0.81373984E+03</rscale>
<asrwt>0</asrwt>
<pdfrwt beam="1">  1       21 0.44046111E-01 0.85324711E+03</pdfrwt>
<pdfrwt beam="2">  1        1 0.32771134E+00 0.85324711E+03</pdfrwt>
<totfact> 0.12272230E+02</totfact>
</mgrwt>
</event>
<event>
 5      1 +1.8937969e-08 1.15489300e+03 7.81665300e-03 9.15328100e-02
       -2 -1    0    0    0  501 -0.0000000000e+00 +0.0000000000e+00 +2.7988851720e+03 2.7988851720e+03 2.5000000000e-03 0.0000e+00 -1.0000e+00
       21 -1    0    0  501  502 +0.0000000000e+00 -0.0000000000e+00 -1.1652291687e+03 1.1652291687e+03 0.0000000000e+00 0.0000e+00 -1.0000e+00
  1000022  1    1    2    0    0 +7.4214089531e+01 -7.1695128653e+02 +5.5251860482e+02 1.0954394655e+03 6.1252260000e+02 0.0000e+00 1.0000e+00
  1000022  1    1    2    0    0 -7.7016013866e+02 +1.1173936844e+03 +1.3621341599e+03 2.0179962067e+03 6.1252260000e+02 0.0000e+00 -1.0000e+00
       -2  1    1    2    0  502 +6.9594604913e+02 -4.0044239786e+02 -2.8099676130e+02 8.5067866857e+02 2.5000000000e-03 0.0000e+00 -1.0000e+00
<mgrwt>
<rscale>  1 0.11548931E+04</rscale>
<asrwt>0</asrwt>
<pdfrwt beam="2">  1       21 0.17926603E+00 0.11548931E+04</pdfrwt>
<pdfrwt beam="1">  1       -2 0.43059772E+00 0.11548931E+04</pdfrwt>
<totfact> 0.53542852E-02</totfact>
</mgrwt>
</event>
<event>
 5      1 +1.8937969e-08 6.48150500e+02 7.81665300e-03 9.81025600e-02
        3 -1    0    0  502    0 +0.0000000000e+00 +0.0000000000e+00 +2.0166334879e+03 2.0166334901e+03 9.5000000000e-02 0.0000e+00 1.0000e+00
       -3 -1    0    0    0  501 -0.0000000000e+00 -0.0000000000e+00 -4.5733294407e+02 4.5733295393e+02 9.5000000000e-02 0.0000e+00 1.0000e+00
  1000022  1    1    2    0    0 +1.6242635575e+02 +1.2656693930e+02 -9.3374355002e+01 6.5291976295e+02 6.1252260000e+02 0.0000e+00 -1.0000e+00
  1000022  1    1    2    0    0 -2.3783594604e+02 -8.4233024569e+01 +1.3145121610e+03 1.4720011197e+03 6.1252260000e+02 0.0000e+00 -1.0000e+00
       21  1    1    2  502  501 +7.5409590286e+01 -4.2333914736e+01 +3.3816273786e+02 3.4904556138e+02 0.0000000000e+00 0.0000e+00 1.0000e+00
<mgrwt>
<rscale>  1 0.64815052E+03</rscale>
<asrwt>0</asrwt>
<pdfrwt beam="1">  1        3 0.31025131E+00 0.64815052E+03</pdfrwt>
<pdfrwt beam="2">  1       -3 0.70358914E-01 0.64815052E+03</pdfrwt>
<totfact> 0.17570513E-01</totfact>
</mgrwt>
</event>
<event>
 5      1 +1.8937969e-08 1.03419800e+03 7.81665300e-03 9.27181300e-02
        1 -1    0    0  502    0 +0.0000000000e+00 +0.0000000000e+00 +1.0771159543e+03 1.0771159543e+03 5.0000000000e-03 0.0000e+00 -1.0000e+00
       -1 -1    0    0    0  501 -0.0000000000e+00 -0.0000000000e+00 -1.1145529653e+03 1.1145529654e+03 5.0000000000e-03 0.0000e+00 1.0000e+00
  1000022  1    1    2    0    0 -7.8940162279e+02 -2.6455831600e+02 +2.4390073105e+02 1.0619875361e+03 6.1252260000e+02 0.0000e+00 1.0000e+00
  1000022  1    1    2    0    0 +7.8301459054e+02 +2.8667945831e+02 -3.2145433268e+02 1.0834268708e+03 6.1252260000e+02 0.0000e+00 -1.0000e+00
       21  1    1    2  502  501 +6.3870322466e+00 -2.2121142311e+01 +4.0116590573e+01 4.6254512831e+01 0.0000000000e+00 0.0000e+00 -1.0000e+00
<mgrwt>
<rscale>  1 0.10341977E+04</rscale>
<asrwt>0</asrwt>
<pdfrwt beam="1">  1        1 0.16571015E+00 0.10341977E+04</pdfrwt>
<pdfrwt beam="2">  1       -1 0.17146969E+00 0.10341977E+04</pdfrwt>
<totfact> 0.31642499E+00</totfact>
</mgrwt>
</event>
<event>
 5      1 +1.8937969e-08 7.98713800e+02 7.81665300e-03 9.56188100e-02
        3 -1    0    0  502    0 +0.0000000000e+00 +0.0000000000e+00 +4.9146175883e+02 4.9146176801e+02 9.5000000000e-02 0.0000e+00 1.0000e+00
       -3 -1    0    0    0  501 -0.0000000000e+00 -0.0000000000e+00 -1.6286220370e+03 1.6286220398e+03 9.5000000000e-02 0.0000e+00 1.0000e+00
  1000022  1    1    2    0    0 +4.4406164923e+02 -2.4034007370e+02 -9.7602956810e+02 1.2580825699e+03 6.1252260000e+02 0.0000e+00 -1.0000e+00
  1000022  1    1    2    0    0 -4.3799077806e+02 +2.7294907221e+02 -1.2116307836e+02 8.1006267952e+02 6.1252260000e+02 0.0000e+00 -1.0000e+00
       21  1    1    2  502  501 -6.0708711722e+00 -3.2608998513e+01 -3.9967631689e+01 5.1938558351e+01 0.0000000000e+00 0.0000e+00 1.0000e+00
<mgrwt>
<rscale>  1 0.79871383E+03</rscale>
<asrwt>0</asrwt>
<pdfrwt beam="1">  1        3 0.75609503E-01 0.79871383E+03</pdfrwt>
<pdfrwt beam="2">  1       -3 0.25055723E+00 0.79871383E+03</pdfrwt>
<totfact> 0.31263688E-01</totfact>
</mgrwt>
</event>
<event>
 5      1 +1.8937969e-08 6.94413000e+02 7.81665300e-03 9.72683500e-02
        2 -1    0    0  502    0 +0.0000000000e+00 +0.0000000000e+00 +1.4774831495e+03 1.4774831495e+03 2.5000000000e-03 0.0000e+00 -1.0000e+00
       -2 -1    0    0    0  501 -0.0000000000e+00 -0.0000000000e+00 -7.9240664367e+02 7.9240664367e+02 2.5000000000e-03 0.0000e+00 1.0000e+00
  1000022  1    1    2    0    0 -3.7290846149e+02 +8.2474944539e+01 +1.0886488232e+03 1.3062170696e+03 6.1252260000e+02 0.0000e+00 -1.0000e+00
  1000022  1    1    2    0    0 +3.1669741797e+02 -4.0095114636e+01 -4.9391477821e+02 8.4914110512e+02 6.1252260000e+02 0.0000e+00 1.0000e+00
       21  1    1    2  502  501 +5.6211043523e+01 -4.2379829903e+01 +9.0342460869e+01 1.1453161848e+02 0.0000000000e+00 0.0000e+00 1.0000e+00
<mgrwt>
<rscale>  1 0.69441297E+03</rscale>
<asrwt>0</asrwt>
<pdfrwt beam="1">  1        2 0.22730510E+00 0.69441297E+03</pdfrwt>
<pdfrwt beam="2">  1       -2 0.12190872E+00 0.69441297E+03</pdfrwt>
<totfact> 0.68951271E+00</totfact>
</mgrwt>
</event>
<event>
 5      1 +1.8937969e-08 7.78761300e+02 7.81665300e-03 9.59127800e-02
        3 -1    0    0  502    0 +0.0000000000e+00 +0.0000000000e+00 +8.5243923121e+02 8.5243923650e+02 9.5000000000e-02 0.0000e+00 1.0000e+00
       -3 -1    0    0    0  501 -0.0000000000e+00 -0.0000000000e+00 -9.4478242100e+02 9.4478242578e+02 9.5000000000e-02 0.0000e+00 1.0000e+00
  1000022  1    1    2    0    0 -4.9047456620e+02 +7.0387902918e+00 +3.7052718448e+02 8.6780710680e+02 6.1252260000e+02 0.0000e+00 -1.0000e+00
  1000022  1    1    2    0    0 +4.5509277561e+02 +1.1825949668e+01 -4.5511862659e+02 8.8857536950e+02 6.1252260000e+02 0.0000e+00 -1.0000e+00
       21  1    1    2  502  501 +3.5381790599e+01 -1.8864739959e+01 -7.7517476849e+00 4.0839185985e+01 0.0000000000e+00 0.0000e+00 -1.0000e+00
<mgrwt>
<rscale>  1 0.77876131E+03</rscale>
<asrwt>0</asrwt>
<pdfrwt beam="1">  1        3 0.13114450E+00 0.77876131E+03</pdfrwt>
<pdfrwt beam="2">  1       -3 0.14535114E+00 0.77876131E+03</pdfrwt>
<totfact> 0.41115810E-01</totfact>
</mgrwt>
</event>
<event>
 5      1 +1.8937969e-08 8.74929900e+02 7.81665300e-03 9.45747400e-02
       -2 -1    0    0    0  501 -0.0000000000e+00 +0.0000000000e+00 +2.7855967244e+02 2.7855967245e+02 2.5000000000e-03 0.0000e+00 -1.0000e+00
        2 -1    0    0  502    0 +0.0000000000e+00 -0.0000000000e+00 -4.0246443974e+03 4.0246443974e+03 2.5000000000e-03 0.0000e+00 1.0000e+00
  1000022  1    1    2    0    0 -6.1872917112e+02 +9.4437940852e+01 -6.9632997571e+02 1.1188403293e+03 6.1252260000e+02 0.0000e+00 -1.0000e+00
  1000022  1    1    2    0    0 +6.1087611093e+02 -1.1409746120e+02 -2.7786404462e+03 2.9124241652e+03 6.1252260000e+02 0.0000e+00 1.0000e+00
       21  1    1    2  502  501 +7.8530601951e+00 +1.9659520349e+01 -2.7111430306e+02 2.7193957531e+02 0.0000000000e+00 0.0000e+00 -1.0000e+00
<mgrwt>
<rscale>  1 0.87492994E+03</rscale>
<asrwt>0</asrwt>
<pdfrwt beam="2">  1        2 0.61917602E+00 0.87492994E+03</pdfrwt>
<pdfrwt beam="1">  1       -2 0.42855337E-01 0.87492994E+03</pdfrwt>
<totfact> 0.18228179E+00</totfact>
</mgrwt>
</event>
<event>
 5      1 +1.8937969e-08 8.67030200e+02 7.81665300e-03 9.46776000e-02
        3 -1    0    0  502    0 +0.0000000000e+00 +0.0000000000e+00 +1.0221729405e+03 1.0221729449e+03 9.5000000000e-02 0.0000e+00 -1.0000e+00
       -3 -1    0    0    0  501 -0.0000000000e+00 -0.0000000000e+00 -8.3703063911e+02 8.3703064450e+02 9.5000000000e-02 0.0000e+00 -1.0000e+00
  1000022  1    1    2    0    0 +4.1256818239e+02 +3.8012374142e+02 +3.4754501957e+01 8.3132326734e+02 6.1252260000e+02 0.0000e+00 1.0000e+00
  1000022  1    1    2    0    0 -4.5828136369e+02 -4.8191259752e+02 +1.4877775342e+02 9.1628615366e+02 6.1252260000e+02 0.0000e+00 1.0000e+00
       21  1    1    2  502  501 +4.5713181303e+01 +1.0178885611e+02 +1.6100459853e+00 1.1159416840e+02 0.0000000000e+00 0.0000e+00 -1.0000e+00
<mgrwt>
<rscale>  1 0.86703021E+03</rscale>
<asrwt>0</asrwt>
<pdfrwt beam="1">  1        3 0.15725738E+00 0.86703021E+03</pdfrwt>
<pdfrwt beam="2">  1       -3 0.12877395E+00 0.86703021E+03</pdfrwt>
<totfact> 0.34886817E-01</totfact>
</mgrwt>
</event>
<event>
 5      1 +1.8937969e-08 7.43855900e+02 7.81665300e-03 9.64503900e-02
       -1 -1    0    0    0  501 -0.0000000000e+00 +0.0000000000e+00 +7.3485601197e+02 7.3485601199e+02 5.0000000000e-03 0.0000e+00 1.0000e+00
        1 -1    0    0  502    0 +0.0000000000e+00 -0.0000000000e+00 -9.1729931841e+02 9.1729931843e+02 5.0000000000e-03 0.0000e+00 -1.0000e+00
  1000022  1    1    2    0    0 -2.9484206345e+02 +3.4347761239e+02 -3.0067000770e+02 8.1883765280e+02 6.1252260000e+02 0.0000e+00 -1.0000e+00
  1000022  1    1    2    0    0 +2.7152462208e+02 -2.6287127930e+02 +4.3644226719e+01 7.2105179004e+02 6.1252260000e+02 0.0000e+00 1.0000e+00
       21  1    1    2  502  501 +2.3317441369e+01 -8.0606333091e+01 +7.4582474539e+01 1.1226588758e+02 0.0000000000e+00 0.0000e+00 1.0000e+00
<mgrwt>
<rscale>  1 0.74385592E+03</rscale>
<asrwt>0</asrwt>
<pdfrwt beam="2">  1        1 0.14112297E+00 0.74385592E+03</pdfrwt>
<pdfrwt beam="1">  1       -1 0.11305477E+00 0.74385592E+03</pdfrwt>
<totfact> 0.12989759E+01</totfact>
</mgrwt>
</event>
<event>
 5      1 +1.8937969e-08 7.69171800e+02 7.81665300e-03 9.60574400e-02
        3 -1    0    0  502    0 +0.0000000000e+00 +0.0000000000e+00 +2.5059831056e+03 2.5059831074e+03 9.5000000000e-02 0.0000e+00 -1.0000e+00
       -3 -1    0    0    0  501 -0.0000000000e+00 -0.0000000000e+00 -2.7834396744e+02 2.7834398365e+02 9.5000000000e-02 0.0000e+00 -1.0000e+00
  1000022  1    1    2    0    0 -2.4087729253e+02 +3.8235950457e+02 +7.4417598730e+02 1.0645198431e+03 6.1252260000e+02 0.0000e+00 1.0000e+00
  1000022  1    1    2    0    0 +2.5091372088e+02 -4.1439386689e+02 +1.1832629391e+03 1.4177359031e+03 6.1252260000e+02 0.0000e+00 1.0000e+00
       21  1    1    2  502  501 -1.0036428351e+01 +3.2034362317e+01 +3.0020021178e+02 3.0207134491e+02 0.0000000000e+00 0.0000e+00 -1.0000e+00
<mgrwt>
<rscale>  1 0.76917180E+03</rscale>
<asrwt>0</asrwt>
<pdfrwt beam="1">  1        3 0.38553589E+00 0.76917180E+03</pdfrwt>
<pdfrwt beam="2">  1       -3 0.42822147E-01 0.76917180E+03</pdfrwt>
<totfact> 0.19388785E-01</totfact>
</mgrwt>
</event>
<event>
 5      1 +1.8937969e-08 8.00903000e+02 7.81665300e-03 9.55871100e-02
       21 -1    0    0  501  502 +0.0000000000e+00 +0.0000000000e+00 +1.8063541117e+03 1.8063541117e+03 0.0000000000e+00 0.0000e+00 -1.0000e+00
       -3 -1    0    0    0  501 -0.0000000000e+00 -0.0000000000e+00 -5.7344230692e+02 5.7344231479e+02 9.5000000000e-02 0.0000e+00 -1.0000e+00
  1000022  1    1    2    0    0 +3.1861726583e+02 -1.3852097011e+02 +1.0470572211e+03 1.2618311222e+03 6.1252260000e+02 0.0000e+00 1.0000e+00
  1000022  1    1    2    0    0 -5.6882057497e+02 +1.6051392940e+02 +1.4845730739e+02 8.6402839981e+02 6.1252260000e+02 0.0000e+00 1.0000e+00
       -3  1    1    2    0  502 +2.5020330914e+02 -2.1992959283e+01 +3.7397276317e+01 2.5393690449e+02 9.5000000000e-02 0.0000e+00 1.0000e+00
<mgrwt>
<rscale>  1 0.80090299E+03</rscale>
<asrwt>0</asrwt>
<pdfrwt beam="1">  1       21 0.27790063E+00 0.80090299E+03</pdfrwt>
<pdfrwt beam="2">  1       -3 0.88221895E-01 0.80090299E+03</pdfrwt>
<totfact> 0.19999809E+00</totfact>
</mgrwt>
</event>
<event>
 5      1 +1.8937969e-08 7.15196000e+02 7.81665300e-03 9.69159200e-02
        2 -1    0    0  502    0 +0.0000000000e+00 +0.0000000000e+00 +6.4739337878e+02 6.4739337879e+02 2.5000000000e-03 0.0000e+00 -1.0000e+00
       -2 -1    0    0    0  501 -0.0000000000e+00 -0.0000000000e+00 -1.1034217584e+03 1.1034217584e+03 2.5000000000e-03 0.0000e+00 1.0000e+00
  1000022  1    1    2    0    0 +3.1239143068e+02 -2.7103767946e+02 -5.4710645854e+02 9.1954295285e+02 6.1252260000e+02 0.0000e+00 1.0000e+00
  1000022  1    1    2    0    0 -2.2271528338e+02 +2.7465291662e+02 +1.5120356474e+02 7.2324461668e+02 6.1252260000e+02 0.0000e+00 -1.0000e+00
       21  1    1    2  502  501 -8.9676147293e+01 -3.6152371597e+00 -6.0125485853e+01 1.0802756770e+02 0.0000000000e+00 0.0000e+00 1.0000e+00
<mgrwt>
<rscale>  1 0.71519601E+03</rscale>
<asrwt>0</asrwt>
<pdfrwt beam="1">  1        2 0.99598981E-01 0.71519601E+03</pdfrwt>
<pdfrwt beam="2">  1       -2 0.16975719E+00 0.71519601E+03</pdfrwt>
<totfact> 0.98675960E+00</totfact>
</mgrwt>
</event>
<event>
 5      1 +1.8937969e-08 6.68598500e+02 7.81665300e-03 9.77249300e-02
        3 -1    0    0  502    0 +0.0000000000e+00 +0.0000000000e+00 +6.1919183715e+02 6.1919184444e+02 9.5000000000e-02 0.0000e+00 1.0000e+00
       -3 -1    0    0    0  501 -0.0000000000e+00 -0.0000000000e+00 -1.4311462428e+03 1.4311462460e+03 9.5000000000e-02 0.0000e+00 1.0000e+00
  1000022  1    1    2    0    0 -2.6498049219e+02 -7.9406732067e+01 -8.6828624404e+02 1.0980095753e+03 6.1252260000e+02 0.0000e+00 -1.0000e+00
  1000022  1    1    2    0    0 +2.6184203648e+02 +4.8951173658e+01 +2.8168473423e+02 7.2490530035e+02 6.1252260000e+02 0.0000e+00 -1.0000e+00
       21  1    1    2  502  501 +3.1384557100e+00 +3.0455558409e+01 -2.2535289588e+02 2.2742321479e+02 0.0000000000e+00 0.0000e+00 1.0000e+00
<mgrwt>
<rscale>  1 0.66859847E+03</rscale>
<asrwt>0</asrwt>
<pdfrwt beam="1">  1        3 0.95260284E-01 0.66859847E+03</pdfrwt>
<pdfrwt beam="2">  1       -3 0.22017635E+00 0.66859847E+03</pdfrwt>
<totfact> 0.28215519E-01</totfact>
</mgrwt>
</event>
<event>
 5      1 +1.8937969e-08 8.19179500e+02 7.81665300e-03 9.53266300e-02
        3 -1    0    0  502    0 +0.0000000000e+00 +0.0000000000e+00 +1.2862607955e+03 1.2862607991e+03 9.5000000000e-02 0.0000e+00 1.0000e+00
       -3 -1    0    0    0  501 -0.0000000000e+00 -0.0000000000e+00 -6.8603572954e+02 6.8603573612e+02 9.5000000000e-02 0.0000e+00 1.0000e+00
  1000022  1    1    2    0    0 -4.9937334733e+02 +1.3638561652e+02 +2.2481647696e+02 8.3288724341e+02 6.1252260000e+02 0.0000e+00 -1.0000e+00
  1000022  1    1    2    0    0 +5.3834621280e+02 -1.6808551896e+02 +5.2317001325e+02 9.8334133687e+02 6.1252260000e+02 0.0000e+00 -1.0000e+00
       21  1    1    2  502  501 -3.8972865474e+01 +3.1699902444e+01 -1.4776142421e+02 1.5606795488e+02 0.0000000000e+00 0.0000e+00 -1.0000e+00
<mgrwt>
<rscale>  1 0.81917947E+03</rscale>
<asrwt>0</asrwt>
<pdfrwt beam="1">  1        3 0.19788628E+00 0.81917947E+03</pdfrwt>
<pdfrwt beam="2">  1       -3 0.10554396E+00 0.81917947E+03</pdfrwt>
<totfact> 0.30187404E-01</totfact>
</mgrwt>
</event>
<event>
 5      1 +1.8937969e-08 6.73147000e+02 7.81665300e-03 9.76428900e-02
       21 -1    0    0  501  502 +0.0000000000e+00 +0.0000000000e+00 +2.3218358634e+03 2.3218358634e+03 0.0000000000e+00 0.0000e+00 -1.0000e+00
        3 -1    0    0  502    0 -0.0000000000e+00 -0.0000000000e+00 -3.7332314989e+02 3.7332316198e+02 9.5000000000e-02 0.0000e+00 -1.0000e+00
  1000022  1    1    2    0    0 -2.8233254757e+02 -6.2075831128e+01 +1.7838056789e+03 1.9080649129e+03 6.1252260000e+02 0.0000e+00 1.0000e+00
  1000022  1    1    2    0    0 +2.4089913657e+02 +1.4189033073e+02 +1.1114682483e+02 6.8242421714e+02 6.1252260000e+02 0.0000e+00 1.0000e+00
        3  1    1    2  501    0 +4.1433410998e+01 -7.9814499601e+01 +5.3560209756e+01 1.0466989533e+02 9.5000000000e-02 0.0000e+00 1.0000e+00
<mgrwt>
<rscale>  1 0.67314701E+03</rscale>
<asrwt>0</asrwt>
<pdfrwt beam="1">  1       21 0.35720551E+00 0.67314701E+03</pdfrwt>
<pdfrwt beam="2">  1        3 0.57434333E-01 0.67314701E+03</pdfrwt>
<totfact> 0.17257003E+00</totfact>
</mgrwt>
</event>
<event>
 5      1 +1.8937969e-08 8.14313300e+02 7.81665300e-03 9.53952700e-02
        3 -1    0    0  502    0 +0.0000000000e+00 +0.0000000000e+00 +6.2740807325e+02 6.2740808044e+02 9.5000000000e-02 0.0000e+00 1.0000e+00
       -3 -1    0    0    0  501 -0.0000000000e+00 -0.0000000000e+00 -1.3307053795e+03 1.3307053829e+03 9.5000000000e-02 0.0000e+00 1.0000e+00
  1000022  1    1    2    0    0 -4.7437526592e+02 -1.7128506220e+01 -6.6240320578e+02 1.0194543742e+03 6.1252260000e+02 0.0000e+00 -1.0000e+00
  1000022  1    1    2    0    0 +5.6558878237e+02 +4.7889518771e+01 -2.6785834255e+00 8.3508992753e+02 6.1252260000e+02 0.0000e+00 -1.0000e+00
       21  1    1    2  502  501 -9.1213516448e+01 -3.0761012551e+01 -3.8215517010e+01 1.0356916151e+02 0.0000000000e+00 0.0000e+00 1.0000e+00
<mgrwt>
<rscale>  1 0.81431332E+03</rscale>
<asrwt>0</asrwt>
<pdfrwt beam="1">  1        3 0.96524320E-01 0.81431332E+03</pdfrwt>
<pdfrwt beam="2">  1       -3 0.20472391E+00 0.81431332E+03</pdfrwt>
<totfact> 0.33615792E-01</totfact>
</mgrwt>
</event>
<event>
 5      1 +1.8937969e-08 7.72173700e+02 7.81665300e-03 9.60119100e-02
       -2 -1    0    0    0  501 -0.0000000000e+00 +0.0000000000e+00 +1.6032332426e+03 1.6032332426e+03 2.5000000000e-03 0.0000e+00 1.0000e+00
        2 -1    0    0  502    0 +0.0000000000e+00 -0.0000000000e+00 -3.9207627519e+02 3.9207627520e+02 2.5000000000e-03 0.0000e+00 -1.0000e+00
  1000022  1    1    2    0    0 -4.8107800126e+02 -6.1232405566e+01 +6.3801920085e+02 1.0086812613e+03 6.1252260000e+02 0.0000e+00 1.0000e+00
  1000022  1    1    2    0    0 +4.5161647303e+02 +7.2141446051e+01 +5.1876067765e+02 9.2382812424e+02 6.1252260000e+02 0.0000e+00 -1.0000e+00
       21  1    1    2  502  501 +2.9461528229e+01 -1.0909040485e+01 +5.4377088958e+01 6.2800132272e+01 0.0000000000e+00 0.0000e+00 1.0000e+00
<mgrwt>
<rscale>  1 0.77217369E+03</rscale>
<asrwt>0</asrwt>
<pdfrwt beam="2">  1        2 0.60319427E-01 0.77217369E+03</pdfrwt>
<pdfrwt beam="1">  1       -2 0.24665127E+00 0.77217369E+03</pdfrwt>
<totfact> 0.56170902E+00</totfact>
</mgrwt>
</event>
<event>
 5      1 +1.8937969e-08 6.30944300e+02 7.81665300e-03 9.84320800e-02
       21 -1    0    0  501  502 +0.0000000000e+00 +0.0000000000e+00 +3.9618841845e+02 3.9618841845e+02 0.0000000000e+00 0.0000e+00 -1.0000e+00
       -1 -1    0    0    0  501 -0.0000000000e+00 -0.0000000000e+00 -3.0714711707e+03 3.0714711707e+03 5.0000000000e-03 0.0000e+00 1.0000e+00
  1000022  1    1    2    0    0 -1.3716493049e+02 -1.1895682812e+02 -1.9275684098e+03 2.0306818695e+03 6.1252260000e+02 0.0000e+00 1.0000e+00
  1000022  1    1    2    0    0 -3.2669901515e+02 +2.4773908580e+02 -5.3439910959e+02 9.1042476074e+02 6.1252260000e+02 0.0000e+00 -1.0000e+00
       -1  1    1    2    0  502 +4.6386394565e+02 -1.2878225768e+02 -2.1331523288e+02 5.2655295894e+02 5.0000000000e-03 0.0000e+00 1.0000e+00
<mgrwt>
<rscale>  1 0.63094425E+03</rscale>
<asrwt>0</asrwt>
<pdfrwt beam="1">  1       21 0.60952066E-01 0.63094425E+03</pdfrwt>
<pdfrwt beam="2">  1       -1 0.47253401E+00 0.63094425E+03</pdfrwt>
<totfact> 0.52678415E-01</totfact>
</mgrwt>
</event>
<event>
 5      1 +1.8937969e-08 8.80110700e+02 7.81665300e-03 9.45079100e-02
       -3 -1    0    0    0  501 -0.0000000000e+00 +0.0000000000e+00 +1.2697431548e+03 1.2697431583e+03 9.5000000000e-02 0.0000e+00 1.0000e+00
        3 -1    0    0  502    0 +0.0000000000e+00 -0.0000000000e+00 -6.7188119978e+02 6.7188120649e+02 9.5000000000e-02 0.0000e+00 1.0000e+00
  1000022  1    1    2    0    0 -6.2439729420e+02 +8.2299292241e+01 +2.8609922833e+02 9.2394905621e+02 6.1252260000e+02 0.0000e+00 -1.0000e+00
  1000022  1    1    2    0    0 +6.3223836875e+02 -5.2030214003e+01 +3.6624580162e+02 9.5485727771e+02 6.1252260000e+02 0.0000e+00 -1.0000e+00
       21  1    1    2  502  501 -7.8410745421e+00 -3.0269078237e+01 -5.4483074963e+01 6.2818030889e+01 0.0000000000e+00 0.0000e+00 1.0000e+00
<mgrwt>
<rscale>  1 0.88011073E+03</rscale>
<asrwt>0</asrwt>
<pdfrwt beam="2">  1        3 0.10336634E+00 0.88011073E+03</pdfrwt>
<pdfrwt beam="1">  1       -3 0.19534510E+00 0.88011073E+03</pdfrwt>
<totfact> 0.32650311E-01</totfact>
</mgrwt>
</event>
<event>
 5      1 +1.8937969e-08 8.06048100e+02 7.81665300e-03 9.55130400e-02
        3 -1    0    0  502    0 +0.0000000000e+00 +0.0000000000e+00 +2.8927806188e+02 2.8927807747e+02 9.5000000000e-02 0.0000e+00 1.0000e+00
       -3 -1    0    0    0  501 -0.0000000000e+00 -0.0000000000e+00 -2.7878118780e+03 2.7878118796e+03 9.5000000000e-02 0.0000e+00 1.0000e+00
  1000022  1    1    2    0    0 -4.9488703945e+02 -5.8166417840e+01 -6.4867161673e+02 1.0218881132e+03 6.1252260000e+02 0.0000e+00 -1.0000e+00
  1000022  1    1    2    0    0 +5.3322951393e+02 +5.2226702145e+01 -1.8444886930e+03 2.0160317004e+03 6.1252260000e+02 0.0000e+00 -1.0000e+00
       21  1    1    2  502  501 -3.8342474486e+01 +5.9397156945e+00 -5.3735064002e+00 3.9170143518e+01 0.0000000000e+00 0.0000e+00 -1.0000e+00
<mgrwt>
<rscale>  1 0.80604813E+03</rscale>
<asrwt>0</asrwt>
<pdfrwt beam="1">  1        3 0.44504320E-01 0.80604813E+03</pdfrwt>
<pdfrwt beam="2">  1       -3 0.42889412E+00 0.80604813E+03</pdfrwt>
<totfact> 0.99371169E-02</totfact>
</mgrwt>
</event>
<event>
 5      1 +1.8937969e-08 6.52848800e+02 7.81665300e-03 9.80144800e-02
       -3 -1    0    0    0  501 -0.0000000000e+00 +0.0000000000e+00 +2.5811553549e+02 2.5811555297e+02 9.5000000000e-02 0.0000e+00 1.0000e+00
        3 -1    0    0  502    0 +0.0000000000e+00 -0.0000000000e+00 -3.1520859473e+03 3.1520859487e+03 9.5000000000e-02 0.0000e+00 1.0000e+00
  1000022  1    1    2    0    0 +5.0223067625e+01 +2.1763366545e+02 -2.5504599035e+03 2.6324734422e+03 6.1252260000e+02 0.0000e+00 -1.0000e+00
  1000022  1    1    2    0    0 -3.4278848061e+01 -2.3616371029e+02 -3.5878273629e+02 7.4890408254e+02 6.1252260000e+02 0.0000e+00 -1.0000e+00
       21  1    1    2  502  501 -1.5944219564e+01 +1.8530044840e+01 +1.5272228009e+01 2.8823976957e+01 0.0000000000e+00 0.0000e+00 -1.0000e+00
<mgrwt>
<rscale>  1 0.65284882E+03</rscale>
<asrwt>0</asrwt>
<pdfrwt beam="2">  1        3 0.48493627E+00 0.65284882E+03</pdfrwt>
<pdfrwt beam="1">  1       -3 0.39710086E-01 0.65284882E+03</pdfrwt>
<totfact> 0.70842181E-02</totfact>
</mgrwt>
</event>
<event>
 5      1 +1.8937969e-08 8.27701500e+02 7.81665300e-03 9.52076400e-02
        2 -1    0    0  502    0 +0.0000000000e+00 +0.0000000000e+00 +2.0186010822e+03 2.0186010822e+03 2.5000000000e-03 0.0000e+00 -1.0000e+00
       -2 -1    0    0    0  501 -0.0000000000e+00 -0.0000000000e+00 -4.4167138032e+02 4.4167138033e+02 2.5000000000e-03 0.0000e+00 1.0000e+00
  1000022  1    1    2    0    0 -9.6007786504e+00 +6.1322511177e+02 +9.7852865928e+02 1.3072258738e+03 6.1252260000e+02 0.0000e+00 -1.0000e+00
  1000022  1    1    2    0    0 +1.0030332712e+01 -5.2671265879e+02 +3.3289650777e+02 8.7380252512e+02 6.1252260000e+02 0.0000e+00 1.0000e+00
       21  1    1    2  502  501 -4.2955406154e-01 -8.6512452976e+01 +2.6550453482e+02 2.7924406359e+02 0.0000000000e+00 0.0000e+00 1.0000e+00
<mgrwt>
<rscale>  1 0.82770147E+03</rscale>
<asrwt>0</asrwt>
<pdfrwt beam="1">  1        2 0.31055402E+00 0.82770147E+03</pdfrwt>
<pdfrwt beam="2">  1       -2 0.67949440E-01 0.82770147E+03</pdfrwt>
<totfact> 0.13253044E+01</totfact>
</mgrwt>
</event>
<event>
 5      1 +1.8937969e-08 6.32555300e+02 7.81665300e-03 9.84007500e-02
       21 -1    0    0  501  502 +0.0000000000e+00 +0.0000000000e+00 +5.3614083404e+02 5.3614083404e+02 0.0000000000e+00 0.0000e+00 -1.0000e+00
        3 -1    0    0  502    0 -0.0000000000e+00 -0.0000000000e+00 -2.0322537652e+03 2.0322537674e+03 9.5000000000e-02 0.0000e+00 -1.0000e+00
  1000022  1    1    2    0    0 +9.5096692440e+01 -5.3105867606e+01 +2.2219389672e+01 6.2252811252e+02 6.1252260000e+02 0.0000e+00 1.0000e+00
  1000022  1    1    2    0    0 -9.0468565756e+01 +1.4276415475e+02 -1.6603884902e+03 1.7778188995e+03 6.1252260000e+02 0.0000e+00 1.0000e+00
        3  1    1    2  501    0 -4.6281266839e+00 -8.9658287148e+01 +1.4205616945e+02 1.6804758944e+02 9.5000000000e-02 0.0000e+00 1.0000e+00
<mgrwt>
<rscale>  1 0.63255530E+03</rscale>
<asrwt>0</asrwt>
<pdfrwt beam="1">  1       21 0.82483206E-01 0.63255530E+03</pdfrwt>
<pdfrwt beam="2">  1        3 0.31265443E+00 0.63255530E+03</pdfrwt>
<totfact> 0.19961492E+00</totfact>
</mgrwt>
</event>
<event>
 5      1 +1.8937969e-08 6.71355300e+02 7.81665300e-03 9.76751200e-02
        3 -1    0    0  502    0 +0.0000000000e+00 +0.0000000000e+00 +7.1498965588e+02 7.1498966219e+02 9.5000000000e-02 0.0000e+00 -1.0000e+00
       -3 -1    0    0    0  501 -0.0000000000e+00 -0.0000000000e+00 -1.0438873077e+03 1.0438873120e+03 9.5000000000e-02 0.0000e+00 -1.0000e+00
  1000022  1    1    2    0    0 -2.5238639677e+02 -1.0039554329e+02 -6.9203075603e+02 9.6325939455e+02 6.1252260000e+02 0.0000e+00 1.0000e+00
  1000022  1    1    2    0    0 +2.7238401175e+02 +9.2975496813e+01 +3.2240947804e+02 7.4964611645e+02 6.1252260000e+02 0.0000e+00 1.0000e+00
       21  1    1    2  502  501 -1.9997614986e+01 +7.4200464749e+00 +4.0723626214e+01 4.5971463180e+01 0.0000000000e+00 0.0000e+00 -1.0000e+00
<mgrwt>
<rscale>  1 0.67135534E+03</rscale>
<asrwt>0</asrwt>
<pdfrwt beam="1">  1        3 0.10999841E+00 0.67135534E+03</pdfrwt>
<pdfrwt beam="2">  1       -3 0.16059805E+00 0.67135534E+03</pdfrwt>
<totfact> 0.49012673E-01</totfact>
</mgrwt>
</event>
<event>
 5      1 +1.8937969e-08 8.76089300e+02 7.81665300e-03 9.45597500e-02
       -3 -1    0    0    0  501 -0.0000000000e+00 +0.0000000000e+00 +2.6170700515e+03 2.6170700533e+03 9.5000000000e-02 0.0000e+00 -1.0000e+00
        3 -1    0    0  502    0 +0.0000000000e+00 -0.0000000000e+00 -4.7255901436e+02 4.7255902391e+02 9.5000000000e-02 0.0000e+00 -1.0000e+00
  1000022  1    1    2    0    0 -6.5416713255e+02 -9.2885012003e+01 +5.6796836873e+02 1.0650512974e+03 6.1252260000e+02 0.0000e+00 -1.0000e+00
  1000022  1    1    2    0    0 +5.8542985941e+02 +8.8831156100e+01 +5.9153801466e+02 1.0371693463e+03 6.1252260000e+02 0.0000e+00 -1.0000e+00
       21  1    1    2  502  501 +6.8737273141e+01 +4.0538559038e+00 +9.8500465380e+02 9.8740843346e+02 0.0000000000e+00 0.0000e+00 -1.0000e+00
<mgrwt>
<rscale>  1 0.87608932E+03</rscale>
<asrwt>0</asrwt>
<pdfrwt beam="2">  1        3 0.72701388E-01 0.87608932E+03</pdfrwt>
<pdfrwt beam="1">  1       -3 0.40262616E+00 0.87608932E+03</pdfrwt>
<totfact> 0.48615238E-02</totfact>
</mgrwt>
</event>
<event>
 5      1 +1.8937969e-08 8.54440800e+02 7.81665300e-03 9.48439600e-02
       21 -1    0    0  501  502 +0.0000000000e+00 +0.0000000000e+00 +1.0411737832e+03 1.0411737832e+03 0.0000000000e+00 0.0000e+00 -1.0000e+00
       -3 -1    0    0    0  501 -0.0000000000e+00 -0.0000000000e+00 -1.2017579634e+03 1.2017579671e+03 9.5000000000e-02 0.0000e+00 -1.0000e+00
  1000022  1    1    2    0    0 -3.5398232300e+02 +5.1990782299e+02 -3.9053105723e+02 9.6088816809e+02 6.1252260000e+02 0.0000e+00 1.0000e+00
  1000022  1    1    2    0    0 +4.6357033990e+01 -5.9500197153e+02 -5.3757613020e+01 8.5688396950e+02 6.1252260000e+02 0.0000e+00 1.0000e+00
       -3  1    1    2    0  502 +3.0762528901e+02 +7.5094148534e+01 +2.8370449008e+02 4.2515961273e+02 9.5000000000e-02 0.0000e+00 1.0000e+00
<mgrwt>
<rscale>  1 0.85444079E+03</rscale>
<asrwt>0</asrwt>
<pdfrwt beam="1">  1       21 0.16018058E+00 0.85444079E+03</pdfrwt>
<pdfrwt beam="2">  1       -3 0.18488584E+00 0.85444079E+03</pdfrwt>
<totfact> 0.18934431E+00</totfact>
</mgrwt>
</event>
<event>
 5      1 +1.8937969e-08 6.60477600e+02 7.81665300e-03 9.78731500e-02
        3 -1    0    0  502    0 +0.0000000000e+00 +0.0000000000e+00 +1.1848183656e+03 1.1848183694e+03 9.5000000000e-02 0.0000e+00 1.0000e+00
       -3 -1    0    0    0  501 -0.0000000000e+00 -0.0000000000e+00 -6.8376906514e+02 6.8376907174e+02 9.5000000000e-02 0.0000e+00 1.0000e+00
  1000022  1    1    2    0    0 +1.7946597448e+02 +2.2413805756e+02 -3.2839133900e+02 7.5197786662e+02 6.1252260000e+02 0.0000e+00 -1.0000e+00
  1000022  1    1    2    0    0 -1.6442991470e+02 -1.7318108083e+02 +8.3549231034e+02 1.0631369713e+03 6.1252260000e+02 0.0000e+00 -1.0000e+00
       21  1    1    2  502  501 -1.5036059777e+01 -5.0956976736e+01 -6.0516709150e+00 5.3472603196e+01 0.0000000000e+00 0.0000e+00 -1.0000e+00
<mgrwt>
<rscale>  1 0.66047755E+03</rscale>
<asrwt>0</asrwt>
<pdfrwt beam="1">  1        3 0.18227975E+00 0.66047755E+03</pdfrwt>
<pdfrwt beam="2">  1       -3 0.10519524E+00 0.66047755E+03</pdfrwt>
<totfact> 0.38823160E-01</totfact>
</mgrwt>
</event>
<event>
 5      1 +1.8937969e-08 8.57858800e+02 7.81665300e-03 9.47984900e-02
        3 -1    0    0  502    0 +0.0000000000e+00 +0.0000000000e+00 +5.0070976529e+02 5.0070977430e+02 9.5000000000e-02 0.0000e+00 1.0000e+00
       -3 -1    0    0    0  501 -0.0000000000e+00 -0.0000000000e+00 -1.7055301947e+03 1.7055301974e+03 9.5000000000e-02 0.0000e+00 1.0000e+00
  1000022  1    1    2    0    0 -9.2766967433e+01 +5.5842212903e+02 -6.9158830245e+02 1.0834755650e+03 6.1252260000e+02 0.0000e+00 -1.0000e+00
  1000022  1    1    2    0    0 +1.2187179580e+02 -6.1367428246e+02 -3.4112956013e+02 9.3968195250e+02 6.1252260000e+02 0.0000e+00 -1.0000e+00
       21  1    1    2  502  501 -2.9104828365e+01 +5.5252153428e+01 -1.7210256687e+02 1.8308245414e+02 0.0000000000e+00 0.0000e+00 1.0000e+00
<mgrwt>
<rscale>  1 0.85785881E+03</rscale>
<asrwt>0</asrwt>
<pdfrwt beam="1">  1        3 0.77032273E-01 0.85785881E+03</pdfrwt>
<pdfrwt beam="2">  1       -3 0.26238926E+00 0.85785881E+03</pdfrwt>
<totfact> 0.25546636E-01</totfact>
</mgrwt>
</event>
<event>
 5      1 +1.8937969e-08 6.58944400e+02 7.81665300e-03 9.79013900e-02
        3 -1    0    0  502    0 -0.0000000000e+00 +0.0000000000e+00 +1.2701102379e+03 1.2701102414e+03 9.5000000000e-02 0.0000e+00 1.0000e+00
       21 -1    0    0  501  502 +0.0000000000e+00 -0.0000000000e+00 -7.0672163443e+02 7.0672163443e+02 0.0000000000e+00 0.0000e+00 1.0000e+00
  1000022  1    1    2    0    0 -2.2110514955e+02 -2.7805090930e+02 -2.5599403983e+02 7.5293869555e+02 6.1252260000e+02 0.0000e+00 -1.0000e+00
  1000022  1    1    2    0    0 +1.5247327228e+02 +1.5712375186e+02 +8.6068639715e+02 1.0788424268e+03 6.1252260000e+02 0.0000e+00 -1.0000e+00
        3  1    1    2  501    0 +6.8631877277e+01 +1.2092715744e+02 -4.1303753855e+01 1.4505075350e+02 9.5000000000e-02 0.0000e+00 -1.0000e+00
<mgrwt>
<rscale>  1 0.65894445E+03</rscale>
<asrwt>0</asrwt>
<pdfrwt beam="2">  1       21 0.10872641E+00 0.65894445E+03</pdfrwt>
<pdfrwt beam="1">  1        3 0.19540158E+00 0.65894445E+03</pdfrwt>
<totfact> 0.47513151E+00</totfact>
</mgrwt>
</event>
<event>
 5      1 +1.8937969e-08 6.32090000e+02 7.81665300e-03 9.84097900e-02
       -1 -1    0    0    0  501 -0.0000000000e+00 +0.0000000000e+00 +3.8374451024e+02 3.8374451027e+02 5.0000000000e-03 0.0000e+00 1.0000e+00
        1 -1    0    0  502    0 +0.0000000000e+00 -0.0000000000e+00 -1.6165414526e+03 1.6165414526e+03 5.0000000000e-03 0.0000e+00 -1.0000e+00
  1000022  1    1    2    0    0 -7.0085082836e+01 +1.2323694166e+02 -1.0312584464e+03 1.2077984854e+03 6.1252260000e+02 0.0000e+00 -1.0000e+00
  1000022  1    1    2    0    0 +3.6376202804e+01 -1.9480780111e+02 -2.5980913844e+02 6.9423197235e+02 6.1252260000e+02 0.0000e+00 1.0000e+00
       21  1    1    2  502  501 +3.3708880032e+01 +7.1570859443e+01 +5.8270642457e+01 9.8255505122e+01 0.0000000000e+00 0.0000e+00 -1.0000e+00
<mgrwt>
<rscale>  1 0.63208995E+03</rscale>
<asrwt>0</asrwt>
<pdfrwt beam="2">  1        1 0.24869868E+00 0.63208995E+03</pdfrwt>
<pdfrwt beam="1">  1       -1 0.59037618E-01 0.63208995E+03</pdfrwt>
<totfact> 0.16694446E+01</totfact>
</mgrwt>
</event>
<event>
 5      1 +1.8937969e-08 7.61178100e+02 7.81665300e-03 9.61797500e-02
        3 -1    0    0  502    0 +0.0000000000e+00 +0.0000000000e+00 +8.8014605521e+02 8.8014606034e+02 9.5000000000e-02 0.0000e+00 1.0000e+00
       -3 -1    0    0    0  501 -0.0000000000e+00 -0.0000000000e+00 -8.9127711787e+02 8.9127712293e+02 9.5000000000e-02 0.0000e+00 1.0000e+00
  1000022  1    1    2    0    0 -3.7801665041e+02 +2.4005596380e+02 -4.3036858579e+02 8.7230986976e+02 6.1252260000e+02 0.0000e+00 -1.0000e+00
  1000022  1    1    2    0    0 +4.0256252257e+02 -2.3100896096e+02 +4.1195237332e+02 8.7195780747e+02 6.1252260000e+02 0.0000e+00 -1.0000e+00
       21  1    1    2  502  501 -2.4545872155e+01 -9.0470028374e+00 +7.2851498043e+00 2.7155506033e+01 0.0000000000e+00 0.0000e+00 -1.0000e+00
<mgrwt>
<rscale>  1 0.76117806E+03</rscale>
<asrwt>0</asrwt>
<pdfrwt beam="1">  1        3 0.13540709E+00 0.76117806E+03</pdfrwt>
<pdfrwt beam="2">  1       -3 0.13711956E+00 0.76117806E+03</pdfrwt>
<totfact> 0.44108249E-01</totfact>
</mgrwt>
</event>
<event>
 5      1 +1.8937969e-08 8.81207100e+02 7.81665300e-03 9.44938300e-02
        3 -1    0    0  502    0 +0.0000000000e+00 +0.0000000000e+00 +1.5076580395e+03 1.5076580425e+03 9.5000000000e-02 0.0000e+00 -1.0000e+00
       -3 -1    0    0    0  501 -0.0000000000e+00 -0.0000000000e+00 -5.9522014462e+02 5.9522015220e+02 9.5000000000e-02 0.0000e+00 -1.0000e+00
  1000022  1    1    2    0    0 -1.9099512613e+02 +6.0044169038e+02 +4.7606545850e+02 9.9941563828e+02 6.1252260000e+02 0.0000e+00 1.0000e+00
  1000022  1    1    2    0    0 +1.6901037521e+02 -6.1426450035e+02 +5.1346515534e+02 1.0221133913e+03 6.1252260000e+02 0.0000e+00 1.0000e+00
       21  1    1    2  502  501 +2.1984750925e+01 +1.3822809970e+01 -7.7092718981e+01 8.1349165137e+01 0.0000000000e+00 0.0000e+00 -1.0000e+00
<mgrwt>
<rscale>  1 0.88120711E+03</rscale>
<asrwt>0</asrwt>
<pdfrwt beam="1">  1        3 0.23194739E+00 0.88120711E+03</pdfrwt>
<pdfrwt beam="2">  1       -3 0.91572332E-01 0.88120711E+03</pdfrwt>
<totfact> 0.26039829E-01</totfact>
</mgrwt>
</event>
<event>
 5      1 +1.8937969e-08 8.20833600e+02 7.81665300e-03 9.53034100e-02
        2 -1    0    0  502    0 +0.0000000000e+00 +0.0000000000e+00 +1.3062707550e+03 1.3062707550e+03 2.5000000000e-03 0.0000e+00 -1.0000e+00
       -2 -1    0    0    0  501 -0.0000000000e+00 -0.0000000000e+00 -9.2185267978e+02 9.2185267979e+02 2.5000000000e-03 0.0000e+00 1.0000e+00
  1000022  1    1    2    0    0 -5.2020514963e+02 +1.8651150177e+02 +1.7635493257e+02 8.4361421025e+02 6.1252260000e+02 0.0000e+00 -1.0000e+00
  1000022  1    1    2    0    0 +5.2305244673e+02 -1.4743527293e+02 -3.0213708643e+02 8.7280683788e+02 6.1252260000e+02 0.0000e+00 1.0000e+00
       21  1    1    2  502  501 -2.8472971079e+00 -3.9076228843e+01 +5.1020022907e+02 5.1170238665e+02 0.0000000000e+00 0.0000e+00 -1.0000e+00
<mgrwt>
<rscale>  1 0.82083360E+03</rscale>
<asrwt>0</asrwt>
<pdfrwt beam="1">  1        2 0.20096473E+00 0.82083360E+03</pdfrwt>
<pdfrwt beam="2">  1       -2 0.14182349E+00 0.82083360E+03</pdfrwt>
<totfact> 0.57651237E+00</totfact>
</mgrwt>
</event>
<event>
 5      1 +1.8937969e-08 8.64787200e+02 7.81665300e-03 9.47070200e-02
       -3 -1    0    0    0  501 -0.0000000000e+00 +0.0000000000e+00 +1.0229478028e+03 1.0229478072e+03 9.5000000000e-02 0.0000e+00 -1.0000e+00
        3 -1    0    0  502    0 +0.0000000000e+00 -0.0000000000e+00 -8.2789527784e+02 8.2789528329e+02 9.5000000000e-02 0.0000e+00 -1.0000e+00
  1000022  1    1    2    0    0 +2.8806977709e+02 -5.4759686115e+02 +2.9844476533e+02 9.2038021072e+02 6.1252260000e+02 0.0000e+00 1.0000e+00
  1000022  1    1    2    0    0 -2.9146843702e+02 +5.2296904626e+02 -3.4496784583e+01 8.5721901331e+02 6.1252260000e+02 0.0000e+00 1.0000e+00
       21  1    1    2  502  501 +3.3986599316e+00 +2.4627814886e+01 -6.8895455756e+01 7.3243866495e+01 0.0000000000e+00 0.0000e+00 1.0000e+00
<mgrwt>
<rscale>  1 0.86478719E+03</rscale>
<asrwt>0</asrwt>
<pdfrwt beam="2">  1        3 0.12736851E+00 0.86478719E+03</pdfrwt>
<pdfrwt beam="1">  1       -3 0.15737659E+00 0.86478719E+03</pdfrwt>
<totfact> 0.35741517E-01</totfact>
</mgrwt>
</event>
<event>
 5      1 +1.8937969e-08 8.12477700e+02 7.81665300e-03 9.54213000e-02
       -3 -1    0    0    0  501 -0.0000000000e+00 +0.0000000000e+00 +6.8914932169e+02 6.8914932824e+02 9.5000000000e-02 0.0000e+00 -1.0000e+00
        3 -1    0    0  502    0 +0.0000000000e+00 -0.0000000000e+00 -1.1515494215e+03 1.1515494254e+03 9.5000000000e-02 0.0000e+00 -1.0000e+00
  1000022  1    1    2    0    0 +9.5793194708e+01 -5.3725560164e+02 -5.6382024068e+02 9.9543815325e+02 6.1252260000e+02 0.0000e+00 1.0000e+00
  1000022  1    1    2    0    0 -7.4801739506e+01 +5.0309902033e+02 +1.1145074764e+02 8.0393353528e+02 6.1252260000e+02 0.0000e+00 1.0000e+00
       21  1    1    2  502  501 -2.0991455203e+01 +3.4156581306e+01 -1.0030606738e+01 4.1327065097e+01 0.0000000000e+00 0.0000e+00 -1.0000e+00
<mgrwt>
<rscale>  1 0.81247768E+03</rscale>
<asrwt>0</asrwt>
<pdfrwt beam="2">  1        3 0.17716145E+00 0.81247768E+03</pdfrwt>
<pdfrwt beam="1">  1       -3 0.10602297E+00 0.81247768E+03</pdfrwt>
<totfact> 0.40787508E-01</totfact>
</mgrwt>
</event>
<event>
 5      1 +1.8937969e-08 6.24506100e+02 7.81665300e-03 9.85582900e-02
       -2 -1    0    0    0  501 -0.0000000000e+00 +0.0000000000e+00 +9.2220795568e+02 9.2220795569e+02 2.5000000000e-03 0.0000e+00 -1.0000e+00
        2 -1    0    0  502    0 +0.0000000000e+00 -0.0000000000e+00 -9.1235858602e+02 9.1235858602e+02 2.5000000000e-03 0.0000e+00 1.0000e+00
  1000022  1    1    2    0    0 -1.0399361600e+02 +6.0782463526e+00 +6.1700140778e+02 8.7562908241e+02 6.1252260000e+02 0.0000e+00 -1.0000e+00
  1000022  1    1    2    0    0 +1.2096159535e+02 -3.1545845660e+01 -6.5287922721e+02 9.0391485703e+02 6.1252260000e+02 0.0000e+00 1.0000e+00
       21  1    1    2  502  501 -1.6967979355e+01 +2.5467599307e+01 +4.5727189090e+01 5.5022602264e+01 0.0000000000e+00 0.0000e+00 1.0000e+00
<mgrwt>
<rscale>  1 0.62450611E+03</rscale>
<asrwt>0</asrwt>
<pdfrwt beam="2">  1        2 0.14036286E+00 0.62450611E+03</pdfrwt>
<pdfrwt beam="1">  1       -2 0.14187815E+00 0.62450611E+03</pdfrwt>
<totfact> 0.10309977E+01</totfact>
</mgrwt>
</event>
<event>
 5      1 +1.8937969e-08 6.63883300e+02 7.81665300e-03 9.78107100e-02
       -3 -1    0    0    0  501 -0.0000000000e+00 +0.0000000000e+00 +1.5027360706e+03 1.5027360736e+03 9.5000000000e-02 0.0000e+00 -1.0000e+00
       21 -1    0    0  501  502 +0.0000000000e+00 -0.0000000000e+00 -6.5309630457e+02 6.5309630457e+02 0.0000000000e+00 0.0000e+00 -1.0000e+00
  1000022  1    1    2    0    0 +3.2635998186e+02 +4.9926364681e+01 -1.3110683240e+02 7.0807938585e+02 6.1252260000e+02 0.0000e+00 1.0000e+00
  1000022  1    1    2    0    0 -2.3616612962e+02 -4.3492339336e+01 +1.1098099537e+03 1.2901659169e+03 6.1252260000e+02 0.0000e+00 1.0000e+00
       -3  1    1    2    0  502 -9.0193852242e+01 -6.4340253457e+00 -1.2906335522e+02 1.5758707545e+02 9.5000000000e-02 0.0000e+00 1.0000e+00
<mgrwt>
<rscale>  1 0.66388326E+03</rscale>
<asrwt>0</asrwt>
<pdfrwt beam="2">  1       21 0.10047635E+00 0.66388326E+03</pdfrwt>
<pdfrwt beam="1">  1       -3 0.23119017E+00 0.66388326E+03</pdfrwt>
<totfact> 0.34724322E+00</totfact>
</mgrwt>
</event>
<event>
 5      1 +1.8937969e-08 8.41266000e+02 7.81665300e-03 9.50213500e-02
        2 -1    0    0  502    0 +0.0000000000e+00 +0.0000000000e+00 +1.9868435099e+03 1.9868435099e+03 2.5000000000e-03 0.0000e+00 -1.0000e+00
       -2 -1    0    0    0  501 -0.0000000000e+00 -0.0000000000e+00 -7.1614073963e+02 7.1614073963e+02 2.5000000000e-03 0.0000e+00 1.0000e+00
  1000022  1    1    2    0    0 +2.0619393947e+02 +6.9704936716e+02 +1.0365762279e+03 1.4064380444e+03 6.1252260000e+02 0.0000e+00 -1.0000e+00
  1000022  1    1    2    0    0 +5.6545012287e+01 -5.4177982080e+02 -1.2068754232e+02 8.2853613743e+02 6.1252260000e+02 0.0000e+00 1.0000e+00
       21  1    1    2  502  501 -2.6273895176e+02 -1.5526954636e+02 +3.5481408470e+02 4.6801006773e+02 0.0000000000e+00 0.0000e+00 1.0000e+00
<mgrwt>
<rscale>  1 0.84126604E+03</rscale>
<asrwt>0</asrwt>
<pdfrwt beam="1">  1        2 0.30566823E+00 0.84126604E+03</pdfrwt>
<pdfrwt beam="2">  1       -2 0.11017550E+00 0.84126604E+03</pdfrwt>
<totfact> 0.45411469E+00</totfact>
</mgrwt>
</event>
<event>
 5      1 +1.8937969e-08 6.15933000e+02 7.81665300e-03 9.87289100e-02
        2 -1    0    0  502    0 -0.0000000000e+00 +0.0000000000e+00 +9.5973118743e+02 9.5973118743e+02 2.5000000000e-03 0.0000e+00 -1.0000e+00
       21 -1    0    0  501  502 +0.0000000000e+00 -0.0000000000e+00 -9.4309176336e+02 9.4309176336e+02 0.0000000000e+00 0.0000e+00 1.0000e+00
  1000022  1    1    2    0    0 +3.6002424874e+01 -2.8863873703e+02 -1.8885767447e+02 7.0388894850e+02 6.1252260000e+02 0.0000e+00 -1.0000e+00
  1000022  1    1    2    0    0 +1.0424479800e+02 -1.6123018398e+02 +3.1518387736e+02 7.1511325131e+02 6.1252260000e+02 0.0000e+00 -1.0000e+00
        2  1    1    2  501    0 -1.4024722287e+02 +4.4986892101e+02 -1.0968677883e+02 4.8382075097e+02 2.5000000000e-03 0.0000e+00 -1.0000e+00
<mgrwt>
<rscale>  1 0.61593298E+03</rscale>
<asrwt>0</asrwt>
<pdfrwt beam="2">  1       21 0.14509104E+00 0.61593298E+03</pdfrwt>
<pdfrwt beam="1">  1        2 0.14765095E+00 0.61593298E+03</pdfrwt>
<totfact> 0.93925005E+01</totfact>
</mgrwt>
</event>
<event>
 5      1 +1.8937969e-08 8.42572000e+02 7.81665300e-03 9.50036100e-02
        3 -1    0    0  502    0 +0.0000000000e+00 +0.0000000000e+00 +7.5013044533e+02 7.5013045135e+02 9.5000000000e-02 0.0000e+00 -1.0000e+00
       -3 -1    0    0    0  501 -0.0000000000e+00 -0.0000000000e+00 -1.0551085563e+03 1.0551085606e+03 9.5000000000e-02 0.0000e+00 -1.0000e+00
  1000022  1    1    2    0    0 -5.7825939496e+02 -3.3658549677e+01 +1.0631918888e+02 8.4970849781e+02 6.1252260000e+02 0.0000e+00 1.0000e+00
  1000022  1    1    2    0    0 +5.7745621929e+02 +1.3143848062e+01 -4.0007750270e+02 9.3213431951e+02 6.1252260000e+02 0.0000e+00 1.0000e+00
       21  1    1    2  502  501 +8.0317566477e-01 +2.0514701615e+01 -1.1219797163e+01 2.3396194603e+01 0.0000000000e+00 0.0000e+00 -1.0000e+00
<mgrwt>
<rscale>  1 0.84257197E+03</rscale>
<asrwt>0</asrwt>
<pdfrwt beam="1">  1        3 0.11540468E+00 0.84257197E+03</pdfrwt>
<pdfrwt beam="2">  1       -3 0.16232440E+00 0.84257197E+03</pdfrwt>
<totfact> 0.41991091E-01</totfact>
</mgrwt>
</event>
<event>
 5      1 +1.8937969e-08 7.71059700e+02 7.81665300e-03 9.60287800e-02
        2 -1    0    0  502    0 +0.0000000000e+00 +0.0000000000e+00 +7.3278945904e+02 7.3278945904e+02 2.5000000000e-03 0.0000e+00 -1.0000e+00
       -2 -1    0    0    0  501 -0.0000000000e+00 -0.0000000000e+00 -1.8854546171e+03 1.8854546171e+03 2.5000000000e-03 0.0000e+00 1.0000e+00
  1000022  1    1    2    0    0 -5.0187445103e+02 +1.4037138019e+02 -8.5197307996e+02 1.1715904376e+03 6.1252260000e+02 0.0000e+00 1.0000e+00
  1000022  1    1    2    0    0 +4.0989874106e+02 -2.0133320281e+02 +3.1113992015e+02 8.2495092090e+02 6.1252260000e+02 0.0000e+00 -1.0000e+00
       21  1    1    2  502  501 +9.1975709968e+01 +6.0961822620e+01 -6.1183199830e+02 6.2170271769e+02 0.0000000000e+00 0.0000e+00 1.0000e+00
<mgrwt>
<rscale>  1 0.77105970E+03</rscale>
<asrwt>0</asrwt>
<pdfrwt beam="1">  1        2 0.11273684E+00 0.77105970E+03</pdfrwt>
<pdfrwt beam="2">  1       -2 0.29006994E+00 0.77105970E+03</pdfrwt>
<totfact> 0.14651425E+00</totfact>
</mgrwt>
</event>
<event>
 5      1 +1.8937969e-08 6.18127600e+02 7.81665300e-03 9.86849500e-02
       -2 -1    0    0    0  501 -0.0000000000e+00 +0.0000000000e+00 +6.6035241663e+02 6.6035241664e+02 2.5000000000e-03 0.0000e+00 1.0000e+00
        2 -1    0    0  502    0 +0.0000000000e+00 -0.0000000000e+00 -8.9088030117e+02 8.9088030117e+02 2.5000000000e-03 0.0000e+00 -1.0000e+00
  1000022  1    1    2    0    0 +4.5912771383e+01 +7.0086580425e+01 -4.2039562871e+02 7.4762057990e+02 6.1252260000e+02 0.0000e+00 -1.0000e+00
  1000022  1    1    2    0    0 -6.6082810129e+01 -5.2585511979e+01 +6.5421133651e+00 6.1835176770e+02 6.1252260000e+02 0.0000e+00 1.0000e+00
       21  1    1    2  502  501 +2.0170038746e+01 -1.7501068446e+01 +1.8332563081e+02 1.8526037021e+02 0.0000000000e+00 0.0000e+00 -1.0000e+00
<mgrwt>
<rscale>  1 0.61812758E+03</rscale>
<asrwt>0</asrwt>
<pdfrwt beam="2">  1        2 0.13705851E+00 0.61812758E+03</pdfrwt>
<pdfrwt beam="1">  1       -2 0.10159268E+00 0.61812758E+03</pdfrwt>
<totfact> 0.24360619E+01</totfact>
</mgrwt>
</event>
<event>
 5      1 +1.8937969e-08 8.63667400e+02 7.81665300e-03 9.47217400e-02
        3 -1    0    0  502    0 +0.0000000000e+00 +0.0000000000e+00 +1.1890570400e+03 1.1890570438e+03 9.5000000000e-02 0.0000e+00 -1.0000e+00
       -3 -1    0    0    0  501 -0.0000000000e+00 -0.0000000000e+00 -7.1305339026e+02 7.1305339659e+02 9.5000000000e-02 0.0000e+00 -1.0000e+00
  1000022  1    1    2    0    0 +1.6918305179e+02 -5.9435505470e+02 +4.9444045206e+01 8.7149841376e+02 6.1252260000e+02 0.0000e+00 1.0000e+00
  1000022  1    1    2    0    0 -1.5173414951e+02 +5.7735426813e+02 +3.0721262803e+02 9.0880401484e+02 6.1252260000e+02 0.0000e+00 1.0000e+00
       21  1    1    2  502  501 -1.7448902276e+01 +1.7000786573e+01 +1.1934697654e+02 1.2180801182e+02 0.0000000000e+00 0.0000e+00 -1.0000e+00
<mgrwt>
<rscale>  1 0.86366736E+03</rscale>
<asrwt>0</asrwt>
<pdfrwt beam="1">  1        3 0.18293185E+00 0.86366736E+03</pdfrwt>
<pdfrwt beam="2">  1       -3 0.10970052E+00 0.86366736E+03</pdfrwt>
<totfact> 0.34281514E-01</totfact>
</mgrwt>
</event>
<event>
 5      1 +1.8937969e-08 8.28873800e+02 7.81665300e-03 9.51913900e-02
        3 -1    0    0  502    0 +0.0000000000e+00 +0.0000000000e+00 +2.4674747410e+02 2.4674749239e+02 9.5000000000e-02 0.0000e+00 1.0000e+00
       -3 -1    0    0    0  501 -0.0000000000e+00 -0.0000000000e+00 -3.3127164387e+03 3.3127164401e+03 9.5000000000e-02 0.0000e+00 1.0000e+00
  1000022  1    1    2    0    0 +4.9598190299e+02 -2.1730161403e+01 -1.1309840009e+03 1.3786874170e+03 6.1252260000e+02 0.0000e+00 1.0000e+00
  1000022  1    1    2    0    0 -6.0204317455e+02 +1.0324426558e+02 -1.7541020523e+03 1.9558050281e+03 6.1252260000e+02 0.0000e+00 1.0000e+00
       21  1    1    2  502  501 +1.0606127156e+02 -8.1514104178e+01 -1.8088291135e+02 2.2497148736e+02 0.0000000000e+00 0.0000e+00 1.0000e+00
<mgrwt>
<rscale>  1 0.82887382E+03</rscale>
<asrwt>0</asrwt>
<pdfrwt beam="1">  1        3 0.37961154E-01 0.82887382E+03</pdfrwt>
<pdfrwt beam="2">  1       -3 0.50964865E+00 0.82887382E+03</pdfrwt>
<totfact> 0.50481058E-02</totfact>
</mgrwt>
</event>
<event>
 5      1 +1.8937969e-08 8.63799800e+02 7.81665300e-03 9.47200000e-02
        3 -1    0    0  502    0 +0.0000000000e+00 +0.0000000000e+00 +1.3800371032e+03 1.3800371064e+03 9.5000000000e-02 0.0000e+00 1.0000e+00
       -3 -1    0    0    0  501 -0.0000000000e+00 -0.0000000000e+00 -5.9629478108e+02 5.9629478865e+02 9.5000000000e-02 0.0000e+00 1.0000e+00
  1000022  1    1    2    0    0 +2.1581170751e+02 -5.5655803051e+02 +4.7937070634e+02 9.8046506517e+02 6.1252260000e+02 0.0000e+00 -1.0000e+00
  1000022  1    1    2    0    0 -1.6260637995e+02 +6.0496635764e+02 +2.8590902481e+02 9.2160351272e+02 6.1252260000e+02 0.0000e+00 -1.0000e+00
       21  1    1    2  502  501 -5.3205327563e+01 -4.8408327131e+01 +1.8462590924e+01 7.4263317192e+01 0.0000000000e+00 0.0000e+00 -1.0000e+00
<mgrwt>
<rscale>  1 0.86379977E+03</rscale>
<asrwt>0</asrwt>
<pdfrwt beam="1">  1        3 0.21231340E+00 0.86379977E+03</pdfrwt>
<pdfrwt beam="2">  1       -3 0.91737660E-01 0.86379977E+03</pdfrwt>
<totfact> 0.34030466E-01</totfact>
</mgrwt>
</event>
<event>
 5      1 +1.8937969e-08 6.66993000e+02 7.81665300e-03 9.77540500e-02
        2 -1    0    0  502    0 +0.0000000000e+00 +0.0000000000e+00 +2.3800513618e+03 2.3800513618e+03 2.5000000000e-03 0.0000e+00 -1.0000e+00
       -2 -1    0    0    0  501 -0.0000000000e+00 -0.0000000000e+00 -2.4854822357e+02 2.4854822358e+02 2.5000000000e-03 0.0000e+00 1.0000e+00
  1000022  1    1    2    0    0 -1.1735264374e+02 +2.4317525049e+02 +4.4388878350e+02 8.0319800365e+02 6.1252260000e+02 0.0000e+00 1.0000e+00
  1000022  1    1    2    0    0 +1.0408011329e+02 -2.2572452590e+02 +1.5359043117e+03 1.6721154930e+03 6.1252260000e+02 0.0000e+00 -1.0000e+00
       21  1    1    2  502  501 +1.3272530444e+01 -1.7450724590e+01 +1.5171004296e+02 1.5328608870e+02 0.0000000000e+00 0.0000e+00 1.0000e+00
<mgrwt>
<rscale>  1 0.66699302E+03</rscale>
<asrwt>0</asrwt>
<pdfrwt beam="1">  1        2 0.36616175E+00 0.66699302E+03</pdfrwt>
<pdfrwt beam="2">  1       -2 0.38238188E-01 0.66699302E+03</pdfrwt>
<totfact> 0.27791581E+01</totfact>
</mgrwt>
</event>
<event>
 5      1 +1.8937969e-08 7.79513100e+02 7.81665300e-03 9.59015400e-02
       -2 -1    0    0    0  501 -0.0000000000e+00 +0.0000000000e+00 +9.7645904653e+02 9.7645904653e+02 2.5000000000e-03 0.0000e+00 -1.0000e+00
        2 -1    0    0  502    0 +0.0000000000e+00 -0.0000000000e+00 -1.0292576825e+03 1.0292576825e+03 2.5000000000e-03 0.0000e+00 1.0000e+00
  1000022  1    1    2    0    0 +4.0476713472e+02 +2.3320109645e+02 -5.6270469335e+02 9.5396000554e+02 6.1252260000e+02 0.0000e+00 1.0000e+00
  1000022  1    1    2    0    0 -4.2993383364e+02 -3.2786008381e+02 +4.8705471272e+02 9.5117903917e+02 6.1252260000e+02 0.0000e+00 -1.0000e+00
       21  1    1    2  502  501 +2.5166698921e+01 +9.4658987358e+01 +2.2851344692e+01 1.0057768429e+02 0.0000000000e+00 0.0000e+00 -1.0000e+00
<mgrwt>
<rscale>  1 0.77951312E+03</rscale>
<asrwt>0</asrwt>
<pdfrwt beam="2">  1        2 0.15834734E+00 0.77951312E+03</pdfrwt>
<pdfrwt beam="1">  1       -2 0.15022447E+00 0.77951312E+03</pdfrwt>
<totfact> 0.73087862E+00</totfact>
</mgrwt>
</event>
<event>
 5      1 +1.8937969e-08 6.39823500e+02 7.81665300e-03 9.82606400e-02
       -2 -1    0    0    0  501 -0.0000000000e+00 +0.0000000000e+00 +9.3863271420e+02 9.3863271420e+02 2.5000000000e-03 0.0000e+00 1.0000e+00
        2 -1    0    0  502    0 +0.0000000000e+00 -0.0000000000e+00 -7.3422800508e+02 7.3422800508e+02 2.5000000000e-03 0.0000e+00 -1.0000e+00
  1000022  1    1    2    0    0 +1.3749116543e+02 +1.3266924376e+02 -4.0793741787e+02 7.6033007386e+02 6.1252260000e+02 0.0000e+00 -1.0000e+00
  1000022  1    1    2    0    0 -9.4922636562e+01 -1.3103671210e+02 +5.8141087564e+02 8.5988573001e+02 6.1252260000e+02 0.0000e+00 1.0000e+00
       21  1    1    2  502  501 -4.2568528865e+01 -1.6325316612e+00 +3.0931251341e+01 5.2644915413e+01 0.0000000000e+00 0.0000e+00 1.0000e+00
<mgrwt>
<rscale>  1 0.63982350E+03</rscale>
<asrwt>0</asrwt>
<pdfrwt beam="2">  1        2 0.11295816E+00 0.63982350E+03</pdfrwt>
<pdfrwt beam="1">  1       -2 0.14440503E+00 0.63982350E+03</pdfrwt>
<totfact> 0.13124812E+01</totfact>
</mgrwt>
</event>
<event>
 5      1 +1.8937969e-08 8.58687200e+02 7.81665300e-03 9.47875100e-02
       -3 -1    0    0    0  501 -0.0000000000e+00 +0.0000000000e+00 +2.4406567507e+02 2.4406569355e+02 9.5000000000e-02 0.0000e+00 1.0000e+00
        3 -1    0    0  502    0 +0.0000000000e+00 -0.0000000000e+00 -4.7827955182e+03 4.7827955191e+03 9.5000000000e-02 0.0000e+00 1.0000e+00
  1000022  1    1    2    0    0 -5.2884499447e+02 +2.7237671128e+02 -2.7435493179e+03 2.8733452448e+03 6.1252260000e+02 0.0000e+00 -1.0000e+00
  1000022  1    1    2    0    0 +5.2812132099e+02 -3.1027523696e+02 -1.8748484209e+03 2.0652901465e+03 6.1252260000e+02 0.0000e+00 -1.0000e+00
       21  1    1    2  502  501 +7.2367347802e-01 +3.7898525678e+01 +7.9667895653e+01 8.8225821332e+01 0.0000000000e+00 0.0000e+00 1.0000e+00
<mgrwt>
<rscale>  1 0.85868716E+03</rscale>
<asrwt>0</asrwt>
<pdfrwt beam="2">  1        3 0.73581463E+00 0.85868716E+03</pdfrwt>
<pdfrwt beam="1">  1       -3 0.37548570E-01 0.85868716E+03</pdfrwt>
<totfact> 0.39288996E-03</totfact>
</mgrwt>
</event>
<event>
 5      1 +1.8937969e-08 6.36253600e+02 7.81665300e-03 9.83292100e-02
       -1 -1    0    0    0  501 -0.0000000000e+00 +0.0000000000e+00 +1.0876223350e+03 1.0876223351e+03 5.0000000000e-03 0.0000e+00 1.0000e+00
       21 -1    0    0  501  502 +0.0000000000e+00 -0.0000000000e+00 -2.6780492054e+03 2.6780492054e+03 0.0000000000e+00 0.0000e+00 1.0000e+00
  1000022  1    1    2    0    0 +9.9462639964e+01 +3.8714866216e+02 +5.1244777878e+02 8.9306414375e+02 6.1252260000e+02 0.0000e+00 1.0000e+00
  1000022  1    1    2    0    0 +2.3490286041e+01 +1.8074350456e+02 +5.1609832014e+01 6.4114547355e+02 6.1252260000e+02 0.0000e+00 -1.0000e+00
       -1  1    1    2    0  502 -1.2295292600e+02 -5.6789216672e+02 -2.1544844811e+03 2.2314619231e+03 5.0000000000e-03 0.0000e+00 1.0000e+00
<mgrwt>
<rscale>  1 0.63625364E+03</rscale>
<asrwt>0</asrwt>
<pdfrwt beam="2">  1       21 0.41200757E+00 0.63625364E+03</pdfrwt>
<pdfrwt beam="1">  1       -1 0.16732651E+00 0.63625364E+03</pdfrwt>
<totfact> 0.12581635E-01</totfact>
</mgrwt>
</event>
<event>
 5      1 +1.8937969e-08 6.34376600e+02 7.81665300e-03 9.83654500e-02
       21 -1    0    0  501  502 +0.0000000000e+00 +0.0000000000e+00 +9.1001386089e+02 9.1001386089e+02 0.0000000000e+00 0.0000e+00 1.0000e+00
        3 -1    0    0  502    0 -0.0000000000e+00 -0.0000000000e+00 -1.1841609400e+03 1.1841609439e+03 9.5000000000e-02 0.0000e+00 1.0000e+00
  1000022  1    1    2    0    0 +1.5259920146e+02 -2.5483859869e+01 +4.1841415927e+02 7.5775344776e+02 6.1252260000e+02 0.0000e+00 -1.0000e+00
  1000022  1    1    2    0    0 -1.5601943792e+02 +6.0384355630e+01 -9.1362033951e+02 1.1125980387e+03 6.1252260000e+02 0.0000e+00 -1.0000e+00
        3  1    1    2  501    0 +3.4202364578e+00 -3.4900495761e+01 +2.2105910107e+02 2.2382331830e+02 9.5000000000e-02 0.0000e+00 -1.0000e+00
<mgrwt>
<rscale>  1 0.63437664E+03</rscale>
<asrwt>0</asrwt>
<pdfrwt beam="1">  1       21 0.14000213E+00 0.63437664E+03</pdfrwt>
<pdfrwt beam="2">  1        3 0.18217861E+00 0.63437664E+03</pdfrwt>
<totfact> 0.30250766E+00</totfact>
</mgrwt>
</event>
<event>
 5      1 +1.8937969e-08 1.06343000e+03 7.81665300e-03 9.24158700e-02
       21 -1    0    0  501  502 +0.0000000000e+00 +0.0000000000e+00 +2.1597719949e+03 2.1597719949e+03 0.0000000000e+00 0.0000e+00 -1.0000e+00
        2 -1    0    0  502    0 -0.0000000000e+00 -0.0000000000e+00 -9.5840122690e+02 9.5840122691e+02 2.5000000000e-03 0.0000e+00 1.0000e+00
  1000022  1    1    2    0    0 +2.0168333897e+02 +8.7895712512e+02 +6.6146010142e+02 1.2751294830e+03 6.1252260000e+02 0.0000e+00 -1.0000e+00
  1000022  1    1    2    0    0 -3.3355162182e+02 -7.9150065515e+02 -2.1083055914e+02 1.0758082690e+03 6.1252260000e+02 0.0000e+00 1.0000e+00
        2  1    1    2  501    0 +1.3186828285e+02 -8.7456469970e+01 +7.5074122572e+02 7.6723546983e+02 2.5000000000e-03 0.0000e+00 1.0000e+00
<mgrwt>
<rscale>  1 0.10634305E+04</rscale>
<asrwt>0</asrwt>
<pdfrwt beam="1">  1       21 0.33227261E+00 0.10634305E+04</pdfrwt>
<pdfrwt beam="2">  1        2 0.14744634E+00 0.10634305E+04</pdfrwt>
<totfact> 0.47732018E+00</totfact>
</mgrwt>
</event>
<event>
 5      1 +1.8937969e-08 6.72240500e+02 7.81665300e-03 9.76591900e-02
        3 -1    0    0  502    0 +0.0000000000e+00 +0.0000000000e+00 +8.1191130858e+02 8.1191131414e+02 9.5000000000e-02 0.0000e+00 1.0000e+00
       -3 -1    0    0    0  501 -0.0000000000e+00 -0.0000000000e+00 -1.0099066976e+03 1.0099067020e+03 9.5000000000e-02 0.0000e+00 1.0000e+00
  1000022  1    1    2    0    0 +6.3790181014e+01 +2.7168520797e+02 -6.7329433050e+02 9.5204581319e+02 6.1252260000e+02 0.0000e+00 -1.0000e+00
  1000022  1    1    2    0    0 -1.4813282770e+01 -2.7036118337e+02 +4.7451742826e+02 8.2077117886e+02 6.1252260000e+02 0.0000e+00 -1.0000e+00
       21  1    1    2  502  501 -4.8976898245e+01 -1.3240246011e+00 +7.8151323640e-01 4.9001024130e+01 0.0000000000e+00 0.0000e+00 -1.0000e+00
<mgrwt>
<rscale>  1 0.67224050E+03</rscale>
<asrwt>0</asrwt>
<pdfrwt beam="1">  1        3 0.12490943E+00 0.67224050E+03</pdfrwt>
<pdfrwt beam="2">  1       -3 0.15537026E+00 0.67224050E+03</pdfrwt>
<totfact> 0.39303897E-01</totfact>
</mgrwt>
</event>
<event>
 5      1 +1.8937969e-08 7.45651700e+02 7.81665300e-03 9.64219700e-02
       -3 -1    0    0    0  501 -0.0000000000e+00 +0.0000000000e+00 +1.8293297637e+03 1.8293297661e+03 9.5000000000e-02 0.0000e+00 1.0000e+00
        3 -1    0    0  502    0 +0.0000000000e+00 -0.0000000000e+00 -4.5356187023e+02 4.5356188017e+02 9.5000000000e-02 0.0000e+00 1.0000e+00
  1000022  1    1    2    0    0 -1.1570969622e+02 -4.0547909641e+02 +1.2547571705e+03 1.4585614570e+03 6.1252260000e+02 0.0000e+00 -1.0000e+00
  1000022  1    1    2    0    0 +1.6960508279e+02 +3.9201593998e+02 +7.1925492665e+01 7.5019970229e+02 6.1252260000e+02 0.0000e+00 -1.0000e+00
       21  1    1    2  502  501 -5.3895386571e+01 +1.3463156433e+01 +4.9085230292e+01 7.4130487032e+01 0.0000000000e+00 0.0000e+00 -1.0000e+00
<mgrwt>
<rscale>  1 0.74565174E+03</rscale>
<asrwt>0</asrwt>
<pdfrwt beam="2">  1        3 0.69778749E-01 0.74565174E+03</pdfrwt>
<pdfrwt beam="1">  1       -3 0.28143536E+00 0.74565174E+03</pdfrwt>
<totfact> 0.25075683E-01</totfact>
</mgrwt>
</event>
<event>
 5      1 +1.8937969e-08 7.88316900e+02 7.81665300e-03 9.57708400e-02
       -2 -1    0    0    0  501 -0.0000000000e+00 +0.0000000000e+00 +1.1275270418e+03 1.1275270418e+03 2.5000000000e-03 0.0000e+00 1.0000e+00
        2 -1    0    0  502    0 +0.0000000000e+00 -0.0000000000e+00 -6.9243151386e+02 6.9243151386e+02 2.5000000000e-03 0.0000e+00 -1.0000e+00
  1000022  1    1    2    0    0 -3.6717740964e+02 -3.2684518267e+02 +5.0571193530e+02 9.3411750899e+02 6.1252260000e+02 0.0000e+00 1.0000e+00
  1000022  1    1    2    0    0 +3.6332092726e+02 +3.5069868080e+02 +1.7948681572e+01 7.9403888543e+02 6.1252260000e+02 0.0000e+00 -1.0000e+00
       21  1    1    2  502  501 +3.8564823824e+00 -2.3853498132e+01 -8.8565088938e+01 9.1802161238e+01 0.0000000000e+00 0.0000e+00 -1.0000e+00
<mgrwt>
<rscale>  1 0.78831686E+03</rscale>
<asrwt>0</asrwt>
<pdfrwt beam="2">  1        2 0.10652793E+00 0.78831686E+03</pdfrwt>
<pdfrwt beam="1">  1       -2 0.17346570E+00 0.78831686E+03</pdfrwt>
<totfact> 0.84763096E+00</totfact>
</mgrwt>
</event>
<event>
 5      1 +1.8937969e-08 7.59851700e+02 7.81665300e-03 9.62002000e-02
       -3 -1    0    0    0  501 -0.0000000000e+00 +0.0000000000e+00 +8.8165875777e+02 8.8165876289e+02 9.5000000000e-02 0.0000e+00 -1.0000e+00
       21 -1    0    0  501  502 +0.0000000000e+00 -0.0000000000e+00 -1.6114980699e+03 1.6114980699e+03 0.0000000000e+00 0.0000e+00 -1.0000e+00
  1000022  1    1    2    0    0 +3.2041711574e+02 +3.0789950014e+02 +4.3047827524e+02 8.7061168795e+02 6.1252260000e+02 0.0000e+00 1.0000e+00
  1000022  1    1    2    0    0 -3.2211841015e+02 -3.3579726898e+02 -4.0992477683e+02 8.7163199470e+02 6.1252260000e+02 0.0000e+00 1.0000e+00
       -3  1    1    2    0  502 +1.7012944140e+00 +2.7897768843e+01 -7.5039281052e+02 7.5091315011e+02 9.5000000000e-02 0.0000e+00 1.0000e+00
<mgrwt>
<rscale>  1 0.75985175E+03</rscale>
<asrwt>0</asrwt>
<pdfrwt beam="2">  1       21 0.24792278E+00 0.75985175E+03</pdfrwt>
<pdfrwt beam="1">  1       -3 0.13563981E+00 0.75985175E+03</pdfrwt>
<totfact> 0.11065711E+00</totfact>
</mgrwt>
</event>
<event>
 5      1 +1.8937969e-08 8.12789200e+02 7.81665300e-03 9.54168800e-02
       -2 -1    0    0    0  501 -0.0000000000e+00 +0.0000000000e+00 +1.3873004018e+03 1.3873004018e+03 2.5000000000e-03 0.0000e+00 1.0000e+00
        2 -1    0    0  502    0 +0.0000000000e+00 -0.0000000000e+00 -9.7136613115e+02 9.7136613115e+02 2.5000000000e-03 0.0000e+00 -1.0000e+00
  1000022  1    1    2    0    0 -4.2252786658e+02 +2.5472772126e+02 +8.2698583561e+02 1.1412736384e+03 6.1252260000e+02 0.0000e+00 1.0000e+00
  1000022  1    1    2    0    0 +4.3149989788e+02 -3.3035388082e+02 -5.9903411500e+02 1.0145696895e+03 6.1252260000e+02 0.0000e+00 -1.0000e+00
       21  1    1    2  502  501 -8.9720313039e+00 +7.5626159568e+01 +1.8798255000e+02 2.0282320494e+02 0.0000000000e+00 0.0000e+00 1.0000e+00
<mgrwt>
<rscale>  1 0.81278918E+03</rscale>
<asrwt>0</asrwt>
<pdfrwt beam="2">  1        2 0.14944094E+00 0.81278918E+03</pdfrwt>
<pdfrwt beam="1">  1       -2 0.21343083E+00 0.81278918E+03</pdfrwt>
<totfact> 0.29090810E+00</totfact>
</mgrwt>
</event>
<event>
 5      1 +1.8937969e-08 6.41944200e+02 7.81665300e-03 9.82201400e-02
        2 -1    0    0  502    0 +0.0000000000e+00 +0.0000000000e+00 +4.0874278144e+03 4.0874278144e+03 2.5000000000e-03 0.0000e+00 -1.0000e+00
       -2 -1    0    0    0  501 -0.0000000000e+00 -0.0000000000e+00 -2.6221173662e+02 2.6221173663e+02 2.5000000000e-03 0.0000e+00 1.0000e+00
  1000022  1    1    2    0    0 +1.0334965349e+02 -1.5933571117e+02 +2.1323326344e+02 6.7581164527e+02 6.1252260000e+02 0.0000e+00 1.0000e+00
  1000022  1    1    2    0    0 -1.2490733941e+02 +1.6872501528e+02 +3.5026197619e+03 3.5619656240e+03 6.1252260000e+02 0.0000e+00 -1.0000e+00
       21  1    1    2  502  501 +2.1557685917e+01 -9.3893041103e+00 +1.0936305238e+02 1.1186228175e+02 0.0000000000e+00 0.0000e+00 1.0000e+00
<mgrwt>
<rscale>  1 0.64194423E+03</rscale>
<asrwt>0</asrwt>
<pdfrwt beam="1">  1        2 0.62883506E+00 0.64194423E+03</pdfrwt>
<pdfrwt beam="2">  1       -2 0.40340266E-01 0.64194423E+03</pdfrwt>
<totfact> 0.19327961E+00</totfact>
</mgrwt>
</event>
<event>
 5      1 +1.8937969e-08 7.17229700e+02 7.81665300e-03 9.68821200e-02
        3 -1    0    0  502    0 +0.0000000000e+00 +0.0000000000e+00 +8.6190079984e+02 8.6190080508e+02 9.5000000000e-02 0.0000e+00 1.0000e+00
       -3 -1    0    0    0  501 -0.0000000000e+00 -0.0000000000e+00 -1.4482339111e+03 1.4482339143e+03 9.5000000000e-02 0.0000e+00 1.0000e+00
  1000022  1    1    2    0    0 -3.6993845626e+02 +5.9421011216e+01 +4.9388577263e+02 8.7148861720e+02 6.1252260000e+02 0.0000e+00 -1.0000e+00
  1000022  1    1    2    0    0 +3.6821507068e+02 -2.1179562743e+01 -5.3728831743e+02 8.9436770051e+02 6.1252260000e+02 0.0000e+00 -1.0000e+00
       21  1    1    2  502  501 +1.7233855811e+00 -3.8241448473e+01 -5.4293056650e+02 5.4427840162e+02 0.0000000000e+00 0.0000e+00 1.0000e+00
<mgrwt>
<rscale>  1 0.71722971E+03</rscale>
<asrwt>0</asrwt>
<pdfrwt beam="1">  1        3 0.13260012E+00 0.71722971E+03</pdfrwt>
<pdfrwt beam="2">  1       -3 0.22280522E+00 0.71722971E+03</pdfrwt>
<totfact> 0.12220995E-01</totfact>
</mgrwt>
</event>
<event>
 5      1 +1.8937969e-08 6.20297600e+02 7.81665300e-03 9.86416700e-02
       -2 -1    0    0    0  501 -0.0000000000e+00 +0.0000000000e+00 +5.3451239332e+02 5.3451239333e+02 2.5000000000e-03 0.0000e+00 1.0000e+00
        2 -1    0    0  502    0 +0.0000000000e+00 -0.0000000000e+00 -9.2657802569e+02 9.2657802569e+02 2.5000000000e-03 0.0000e+00 -1.0000e+00
  1000022  1    1    2    0    0 -9.1172933174e-02 -1.1353349301e+02 -2.4006465355e+02 6.6761129091e+02 6.1252260000e+02 0.0000e+00 -1.0000e+00
  1000022  1    1    2    0    0 -1.1207661235e+02 +4.4398934002e+01 -4.8920358170e+01 6.2618652918e+02 6.1252260000e+02 0.0000e+00 1.0000e+00
       21  1    1    2  502  501 +1.1216778529e+02 +6.9134559011e+01 -1.0308062064e+02 1.6729259893e+02 0.0000000000e+00 0.0000e+00 1.0000e+00
<mgrwt>
<rscale>  1 0.62029765E+03</rscale>
<asrwt>0</asrwt>
<pdfrwt beam="2">  1        2 0.14255047E+00 0.62029765E+03</pdfrwt>
<pdfrwt beam="1">  1       -2 0.82232676E-01 0.62029765E+03</pdfrwt>
<totfact> 0.37583132E+01</totfact>
</mgrwt>
</event>
<event>
 5      1 +1.8937969e-08 8.49537900e+02 7.81665300e-03 9.49095700e-02
       21 -1    0    0  501  502 +0.0000000000e+00 +0.0000000000e+00 +2.2209615867e+03 2.2209615867e+03 0.0000000000e+00 0.0000e+00 1.0000e+00
       -3 -1    0    0    0  501 -0.0000000000e+00 -0.0000000000e+00 -6.3469437389e+02 6.3469438100e+02 9.5000000000e-02 0.0000e+00 -1.0000e+00
  1000022  1    1    2    0    0 -6.9279617879e+02 +2.0785902050e+01 +4.3797532443e+01 9.2601336838e+02 6.1252260000e+02 0.0000e+00 1.0000e+00
  1000022  1    1    2    0    0 +4.1522028876e+02 +6.3068066676e+01 +6.3554121867e+02 9.7748761904e+02 6.1252260000e+02 0.0000e+00 1.0000e+00
       -3  1    1    2    0  502 +2.7757589003e+02 -8.3853968726e+01 +9.0692846165e+02 9.5215498022e+02 9.5000000000e-02 0.0000e+00 1.0000e+00
<mgrwt>
<rscale>  1 0.84953788E+03</rscale>
<asrwt>0</asrwt>
<pdfrwt beam="1">  1       21 0.34168639E+00 0.84953788E+03</pdfrwt>
<pdfrwt beam="2">  1       -3 0.97645290E-01 0.84953788E+03</pdfrwt>
<totfact> 0.62864897E-01</totfact>
</mgrwt>
</event>
<event>
 5      1 +1.8937969e-08 6.16318700e+02 7.81665300e-03 9.87211700e-02
        3 -1    0    0  502    0 +0.0000000000e+00 +0.0000000000e+00 +3.7520566128e+02 3.7520567331e+02 9.5000000000e-02 0.0000e+00 -1.0000e+00
       -3 -1    0    0    0  501 -0.0000000000e+00 -0.0000000000e+00 -2.9049758851e+03 2.9049758866e+03 9.5000000000e-02 0.0000e+00 -1.0000e+00
  1000022  1    1    2    0    0 +3.6475595046e+01 +4.1672160425e+01 -9.4173138743e+02 1.1247706342e+03 6.1252260000e+02 0.0000e+00 1.0000e+00
  1000022  1    1    2    0    0 -6.2783635771e+01 -3.7622532444e+01 -5.1919766064e+01 6.1906125504e+02 6.1252260000e+02 0.0000e+00 1.0000e+00
       21  1    1    2  502  501 +2.6308040724e+01 -4.0496279813e+00 -1.5361190703e+03 1.5363496707e+03 0.0000000000e+00 0.0000e+00 -1.0000e+00
<mgrwt>
<rscale>  1 0.61631869E+03</rscale>
<asrwt>0</asrwt>
<pdfrwt beam="1">  1        3 0.57723951E-01 0.61631869E+03</pdfrwt>
<pdfrwt beam="2">  1       -3 0.44691935E+00 0.61631869E+03</pdfrwt>
<totfact> 0.47795190E-02</totfact>
</mgrwt>
</event>
<event>
 5      1 +1.8937969e-08 6.99199000e+02 7.81665300e-03 9.71860300e-02
        2 -1    0    0  502    0 -0.0000000000e+00 +0.0000000000e+00 +1.8375669435e+03 1.8375669435e+03 2.5000000000e-03 0.0000e+00 1.0000e+00
       21 -1    0    0  501  502 +0.0000000000e+00 -0.0000000000e+00 -3.7386873026e+02 3.7386873026e+02 0.0000000000e+00 0.0000e+00 -1.0000e+00
  1000022  1    1    2    0    0 +8.1038303274e+01 -3.8585633775e+02 +4.7127759028e+02 8.6760522278e+02 6.1252260000e+02 0.0000e+00 1.0000e+00
  1000022  1    1    2    0    0 -7.1262939173e+01 +2.9923611951e+02 +1.0392118553e+03 1.2448959303e+03 6.1252260000e+02 0.0000e+00 -1.0000e+00
        2  1    1    2  501    0 -9.7753641010e+00 +8.6620218237e+01 -4.6791232298e+01 9.8934520654e+01 2.5000000000e-03 0.0000e+00 1.0000e+00
<mgrwt>
<rscale>  1 0.69919902E+03</rscale>
<asrwt>0</asrwt>
<pdfrwt beam="2">  1       21 0.57518268E-01 0.69919902E+03</pdfrwt>
<pdfrwt beam="1">  1        2 0.28270260E+00 0.69919902E+03</pdfrwt>
<totfact> 0.27057375E+02</totfact>
</mgrwt>
</event>
<event>
 5      1 +1.8937969e-08 7.12789100e+02 7.81665300e-03 9.69560800e-02
        3 -1    0    0  502    0 +0.0000000000e+00 +0.0000000000e+00 +5.8392073701e+02 5.8392074473e+02 9.5000000000e-02 0.0000e+00 -1.0000e+00
       -3 -1    0    0    0  501 -0.0000000000e+00 -0.0000000000e+00 -1.4086555015e+03 1.4086555047e+03 9.5000000000e-02 0.0000e+00 -1.0000e+00
  1000022  1    1    2    0    0 -3.1392608483e+02 +1.7276921073e+02 +1.8092523650e+02 7.3233644155e+02 6.1252260000e+02 0.0000e+00 1.0000e+00
  1000022  1    1    2    0    0 +3.3691583549e+02 -1.9335143741e+02 -9.3668400161e+02 1.1846762904e+03 6.1252260000e+02 0.0000e+00 1.0000e+00
       21  1    1    2  502  501 -2.2989750664e+01 +2.0582226679e+01 -6.8975999380e+01 7.5563517527e+01 0.0000000000e+00 0.0000e+00 -1.0000e+00
<mgrwt>
<rscale>  1 0.71278914E+03</rscale>
<asrwt>0</asrwt>
<pdfrwt beam="1">  1        3 0.89833961E-01 0.71278914E+03</pdfrwt>
<pdfrwt beam="2">  1       -3 0.21671623E+00 0.71278914E+03</pdfrwt>
<totfact> 0.33754738E-01</totfact>
</mgrwt>
</event>
<event>
 5      1 +1.8937969e-08 1.00407500e+03 7.81665300e-03 9.30408700e-02
        2 -1    0    0  502    0 -0.0000000000e+00 +0.0000000000e+00 +2.7590944408e+03 2.7590944408e+03 2.5000000000e-03 0.0000e+00 -1.0000e+00
       21 -1    0    0  501  502 +0.0000000000e+00 -0.0000000000e+00 -1.3689817199e+03 1.3689817199e+03 0.0000000000e+00 0.0000e+00 -1.0000e+00
  1000022  1    1    2    0    0 -1.2085876228e+02 +5.6188873047e+02 -9.1925122350e+02 1.2452038119e+03 6.1252260000e+02 0.0000e+00 -1.0000e+00
  1000022  1    1    2    0    0 -4.6278942363e+02 -7.0509889919e+02 +1.8611691881e+03 2.1331838155e+03 6.1252260000e+02 0.0000e+00 1.0000e+00
        2  1    1    2  501    0 +5.8364818591e+02 +1.4321016872e+02 +4.4819475624e+02 7.4968853324e+02 2.5000000000e-03 0.0000e+00 -1.0000e+00
<mgrwt>
<rscale>  1 0.10040748E+04</rscale>
<asrwt>0</asrwt>
<pdfrwt beam="2">  1       21 0.21061257E+00 0.10040748E+04</pdfrwt>
<pdfrwt beam="1">  1        2 0.42447607E+00 0.10040748E+04</pdfrwt>
<totfact> 0.26622085E+00</totfact>
</mgrwt>
</event>
<event>
 5      1 +1.8937969e-08 8.55560500e+02 7.81665300e-03 9.48290400e-02
        2 -1    0    0  502    0 +0.0000000000e+00 +0.0000000000e+00 +1.3527963591e+03 1.3527963591e+03 2.5000000000e-03 0.0000e+00 1.0000e+00
       -2 -1    0    0    0  501 -0.0000000000e+00 -0.0000000000e+00 -7.5821651813e+02 7.5821651813e+02 2.5000000000e-03 0.0000e+00 -1.0000e+00
  1000022  1    1    2    0    0 +1.5249801666e+02 +5.5735467434e+02 -1.7794562300e+02 8.6066744934e+02 6.1252260000e+02 0.0000e+00 -1.0000e+00
  1000022  1    1    2    0    0 -2.2272191525e+02 -6.1129060415e+02 +6.8581791829e+02 1.1264152906e+03 6.1252260000e+02 0.0000e+00 1.0000e+00
       21  1    1    2  502  501 +7.0223898588e+01 +5.3935929809e+01 +8.6707545671e+01 1.2393013731e+02 0.0000000000e+00 0.0000e+00 -1.0000e+00
<mgrwt>
<rscale>  1 0.85556054E+03</rscale>
<asrwt>0</asrwt>
<pdfrwt beam="1">  1        2 0.20812252E+00 0.85556054E+03</pdfrwt>
<pdfrwt beam="2">  1       -2 0.11664870E+00 0.85556054E+03</pdfrwt>
<totfact> 0.88502449E+00</totfact>
</mgrwt>
</event>
<event>
 5      1 +1.8937969e-08 6.47755300e+02 7.81665300e-03 9.81100000e-02
        2 -1    0    0  502    0 +0.0000000000e+00 +0.0000000000e+00 +2.5635054049e+03 2.5635054049e+03 2.5000000000e-03 0.0000e+00 1.0000e+00
       -2 -1    0    0    0  501 -0.0000000000e+00 -0.0000000000e+00 -2.5366994649e+02 2.5366994650e+02 2.5000000000e-03 0.0000e+00 -1.0000e+00
  1000022  1    1    2    0    0 +6.5931167342e+01 -2.0195922005e+02 +1.8030364868e+03 1.9160529621e+03 6.1252260000e+02 0.0000e+00 1.0000e+00
  1000022  1    1    2    0    0 -8.8611290705e+01 +1.9100366252e+02 +3.3825806142e+02 7.3070979983e+02 6.1252260000e+02 0.0000e+00 -1.0000e+00
       21  1    1    2  502  501 +2.2680123364e+01 +1.0955557533e+01 +1.6854091023e+02 1.7041258949e+02 0.0000000000e+00 0.0000e+00 1.0000e+00
<mgrwt>
<rscale>  1 0.64775528E+03</rscale>
<asrwt>0</asrwt>
<pdfrwt beam="1">  1        2 0.39438545E+00 0.64775528E+03</pdfrwt>
<pdfrwt beam="2">  1       -2 0.39026145E-01 0.64775528E+03</pdfrwt>
<totfact> 0.21131483E+01</totfact>
</mgrwt>
</event>
<event>
 5      1 +1.8937969e-08 7.10568600e+02 7.81665300e-03 9.69932700e-02
       -3 -1    0    0    0  501 -0.0000000000e+00 +0.0000000000e+00 +7.1542340309e+02 7.1542340940e+02 9.5000000000e-02 0.0000e+00 -1.0000e+00
        3 -1    0    0  502    0 +0.0000000000e+00 -0.0000000000e+00 -1.4219637718e+03 1.4219637750e+03 9.5000000000e-02 0.0000e+00 -1.0000e+00
  1000022  1    1    2    0    0 +1.7260840764e+02 -2.3430184654e+02 +1.7237731014e+02 6.9970628856e+02 6.1252260000e+02 0.0000e+00 1.0000e+00
  1000022  1    1    2    0    0 -2.5138567557e+02 +2.8280089221e+02 -1.0322943019e+03 1.2585652799e+03 6.1252260000e+02 0.0000e+00 1.0000e+00
       21  1    1    2  502  501 +7.8777267934e+01 -4.8499045670e+01 +1.5337662304e+02 1.7911561593e+02 0.0000000000e+00 0.0000e+00 -1.0000e+00
<mgrwt>
<rscale>  1 0.71056863E+03</rscale>
<asrwt>0</asrwt>
<pdfrwt beam="2">  1        3 0.21876366E+00 0.71056863E+03</pdfrwt>
<pdfrwt beam="1">  1       -3 0.11006514E+00 0.71056863E+03</pdfrwt>
<totfact> 0.20502885E-01</totfact>
</mgrwt>
</event>
<event>
 5      1 +1.8937969e-08 1.07852600e+03 7.81665300e-03 9.27034100e-02
       21 -1    0    0  501  502 +0.0000000000e+00 +0.0000000000e+00 +2.3465437614e+03 2.3465437614e+03 0.0000000000e+00 0.0000e+00 -1.0000e+00
        3 -1    0    0  502    0 -0.0000000000e+00 -0.0000000000e+00 -4.3806841991e+02 4.3806843021e+02 9.5000000000e-02 0.0000e+00 -1.0000e+00
  1000022  1    1    2    0    0 -5.6983726255e+02 +3.7498413465e+02 +6.3211067790e+02 1.1135867508e+03 6.1252260000e+02 0.0000e+00 1.0000e+00
  1000022  1    1    2    0    0 +4.2048401709e+02 -1.8052179880e+02 +1.1831738567e+03 1.4087154571e+03 6.1252260000e+02 0.0000e+00 1.0000e+00
        3  1    1    2  501    0 +1.4935324546e+02 -1.9446233584e+02 +9.3190806853e+01 2.6230998360e+02 9.5000000000e-02 0.0000e+00 1.0000e+00
<mgrwt>
<rscale>  1 0.10355976E+04</rscale>
<asrwt>0</asrwt>
<pdfrwt beam="1">  1       21 0.36100673E+00 0.10785264E+04</pdfrwt>
<pdfrwt beam="2">  1        3 0.67395144E-01 0.10785264E+04</pdfrwt>
<totfact> 0.10379231E+00</totfact>
</mgrwt>
</event>
<event>
 5      1 +1.8937969e-08 7.89964300e+02 7.81665300e-03 9.57465800e-02
       21 -1    0    0  501  502 +0.0000000000e+00 +0.0000000000e+00 +7.4180363180e+02 7.4180363180e+02 0.0000000000e+00 0.0000e+00 1.0000e+00
        2 -1    0    0  502    0 -0.0000000000e+00 -0.0000000000e+00 -2.5276496919e+03 2.5276496919e+03 2.5000000000e-03 0.0000e+00 -1.0000e+00
  1000022  1    1    2    0    0 +3.5907465042e+02 -3.0837455635e+02 -4.8202879421e+02 9.1190194952e+02 6.1252260000e+02 0.0000e+00 1.0000e+00
  1000022  1    1    2    0    0 -3.6215212229e+02 +3.5839922884e+02 -1.7425025574e+03 1.9160123343e+03 6.1252260000e+02 0.0000e+00 -1.0000e+00
        2  1    1    2  501    0 +3.0774718762e+00 -5.0024672498e+01 +4.3868529157e+02 4.4153903988e+02 2.5000000000e-03 0.0000e+00 -1.0000e+00
<mgrwt>
<rscale>  1 0.78996428E+03</rscale>
<asrwt>0</asrwt>
<pdfrwt beam="1">  1       21 0.11412364E+00 0.78996428E+03</pdfrwt>
<pdfrwt beam="2">  1        2 0.38886918E+00 0.78996428E+03</pdfrwt>
<totfact> 0.21930662E+01</totfact>
</mgrwt>
</event>
<event>
 5      1 +1.8937969e-08 8.26187600e+02 7.81665300e-03 9.52286600e-02
        3 -1    0    0  502    0 +0.0000000000e+00 +0.0000000000e+00 +1.3460554006e+03 1.3460554040e+03 9.5000000000e-02 0.0000e+00 1.0000e+00
       -3 -1    0    0    0  501 -0.0000000000e+00 -0.0000000000e+00 -6.4288747821e+02 6.4288748523e+02 9.5000000000e-02 0.0000e+00 1.0000e+00
  1000022  1    1    2    0    0 +5.6285987553e+02 -8.0383753361e-01 +6.0885108481e+02 1.0308712163e+03 6.1252260000e+02 0.0000e+00 -1.0000e+00
  1000022  1    1    2    0    0 -5.4697391826e+02 +7.3592469302e+01 -1.6366116494e+01 8.2465029199e+02 6.1252260000e+02 0.0000e+00 -1.0000e+00
       21  1    1    2  502  501 -1.5885957269e+01 -7.2788631768e+01 +1.1068295410e+02 1.3342138090e+02 0.0000000000e+00 0.0000e+00 -1.0000e+00
<mgrwt>
<rscale>  1 0.82618765E+03</rscale>
<asrwt>0</asrwt>
<pdfrwt beam="1">  1        3 0.20708544E+00 0.82618765E+03</pdfrwt>
<pdfrwt beam="2">  1       -3 0.98905768E-01 0.82618765E+03</pdfrwt>
<totfact> 0.30832683E-01</totfact>
</mgrwt>
</event>
<event>
 5      1 +1.8937969e-08 8.37098400e+02 7.81665300e-03 9.50781800e-02
       21 -1    0    0  501  502 +0.0000000000e+00 +0.0000000000e+00 +1.3844958685e+03 1.3844958685e+03 0.0000000000e+00 0.0000e+00 1.0000e+00
        3 -1    0    0  502    0 -0.0000000000e+00 -0.0000000000e+00 -1.4082901699e+03 1.4082901731e+03 9.5000000000e-02 0.0000e+00 -1.0000e+00
  1000022  1    1    2    0    0 +9.7764576188e+02 +9.2599374327e+01 -2.3365197877e+02 1.1807383548e+03 6.1252260000e+02 0.0000e+00 1.0000e+00
  1000022  1    1    2    0    0 -3.7031836394e+02 -4.4851078650e+01 -3.3791494724e+02 7.9279111815e+02 6.1252260000e+02 0.0000e+00 1.0000e+00
        3  1    1    2  501    0 -6.0732739794e+02 -4.7748295677e+01 +5.4777262461e+02 8.1925656867e+02 9.5000000000e-02 0.0000e+00 1.0000e+00
<mgrwt>
<rscale>  1 0.83709842E+03</rscale>
<asrwt>0</asrwt>
<pdfrwt beam="1">  1       21 0.21299937E+00 0.83709842E+03</pdfrwt>
<pdfrwt beam="2">  1        3 0.21666003E+00 0.83709842E+03</pdfrwt>
<totfact> 0.50831776E-01</totfact>
</mgrwt>
</event>
<event>
 5      1 +1.8937969e-08 7.29028300e+02 7.81665300e-03 9.66883900e-02
       -3 -1    0    0    0  501 -0.0000000000e+00 +0.0000000000e+00 +4.1476222487e+02 4.1476223575e+02 9.5000000000e-02 0.0000e+00 -1.0000e+00
        3 -1    0    0  502    0 +0.0000000000e+00 -0.0000000000e+00 -2.1792475615e+03 2.1792475635e+03 9.5000000000e-02 0.0000e+00 -1.0000e+00
  1000022  1    1    2    0    0 -3.8654965280e+02 -1.7524868213e+02 -1.9400152424e+02 7.7003458467e+02 6.1252260000e+02 0.0000e+00 1.0000e+00
  1000022  1    1    2    0    0 +3.6285086631e+02 +1.3649672102e+02 -1.6087853673e+03 1.7645584149e+03 6.1252260000e+02 0.0000e+00 1.0000e+00
       21  1    1    2  502  501 +2.3698786484e+01 +3.8751961109e+01 +3.8301554985e+01 5.9416799685e+01 0.0000000000e+00 0.0000e+00 -1.0000e+00
<mgrwt>
<rscale>  1 0.72902828E+03</rscale>
<asrwt>0</asrwt>
<pdfrwt beam="2">  1        3 0.33526885E+00 0.72902828E+03</pdfrwt>
<pdfrwt beam="1">  1       -3 0.63809575E-01 0.72902828E+03</pdfrwt>
<totfact> 0.15766788E-01</totfact>
</mgrwt>
</event>
<event>
 5      1 +1.8937969e-08 8.66239600e+02 7.81665300e-03 9.46879600e-02
        3 -1    0    0  502    0 +0.0000000000e+00 +0.0000000000e+00 +1.1577578288e+03 1.1577578327e+03 9.5000000000e-02 0.0000e+00 -1.0000e+00
       -3 -1    0    0    0  501 -0.0000000000e+00 -0.0000000000e+00 -7.0273220478e+02 7.0273221120e+02 9.5000000000e-02 0.0000e+00 -1.0000e+00
  1000022  1    1    2    0    0 -1.1673099988e+02 +6.1189167165e+02 +5.8430238896e+01 8.7557727957e+02 6.1252260000e+02 0.0000e+00 1.0000e+00
  1000022  1    1    2    0    0 +8.5525900605e+01 -5.9974904170e+02 +4.0252593032e+02 9.5090727876e+02 6.1252260000e+02 0.0000e+00 1.0000e+00
       21  1    1    2  502  501 +3.1205099274e+01 -1.2142629947e+01 -5.9305452067e+00 3.4005485574e+01 0.0000000000e+00 0.0000e+00 1.0000e+00
<mgrwt>
<rscale>  1 0.86623962E+03</rscale>
<asrwt>0</asrwt>
<pdfrwt beam="1">  1        3 0.17811659E+00 0.86623962E+03</pdfrwt>
<pdfrwt beam="2">  1       -3 0.10811265E+00 0.86623962E+03</pdfrwt>
<totfact> 0.38225862E-01</totfact>
</mgrwt>
</event>
<event>
 5      1 +1.8937969e-08 6.79705600e+02 7.81665300e-03 9.75258200e-02
        2 -1    0    0  502    0 -0.0000000000e+00 +0.0000000000e+00 +2.2533963093e+03 2.2533963093e+03 2.5000000000e-03 0.0000e+00 1.0000e+00
       21 -1    0    0  501  502 +0.0000000000e+00 -0.0000000000e+00 -6.2217569460e+02 6.2217569460e+02 0.0000000000e+00 0.0000e+00 1.0000e+00
  1000022  1    1    2    0    0 -2.8508245611e+02 +5.8734012406e+00 +3.1407663293e+02 7.4507353361e+02 6.1252260000e+02 0.0000e+00 -1.0000e+00
  1000022  1    1    2    0    0 +2.8723922838e+02 -8.7328605159e+01 +1.6512492577e+03 1.7866003208e+03 6.1252260000e+02 0.0000e+00 1.0000e+00
        2  1    1    2  501    0 -2.1567722705e+00 +8.1455203919e+01 -3.3410527588e+02 3.4389814958e+02 2.5000000000e-03 0.0000e+00 1.0000e+00
<mgrwt>
<rscale>  1 0.67970558E+03</rscale>
<asrwt>0</asrwt>
<pdfrwt beam="2">  1       21 0.95719339E-01 0.67970558E+03</pdfrwt>
<pdfrwt beam="1">  1        2 0.34667635E+00 0.67970558E+03</pdfrwt>
<totfact> 0.49878342E+01</totfact>
</mgrwt>
</event>
<event>
 5      1 +1.8937969e-08 6.96778900e+02 7.81665300e-03 9.72275700e-02
        2 -1    0    0  502    0 +0.0000000000e+00 +0.0000000000e+00 +2.7158455334e+03 2.7158455334e+03 2.5000000000e-03 0.0000e+00 -1.0000e+00
       -2 -1    0    0    0  501 -0.0000000000e+00 -0.0000000000e+00 -2.8498338485e+02 2.8498338486e+02 2.5000000000e-03 0.0000e+00 1.0000e+00
  1000022  1    1    2    0    0 -1.6904249124e+02 +2.3324156945e+02 +3.1248958648e+02 7.4552710932e+02 6.1252260000e+02 0.0000e+00 1.0000e+00
  1000022  1    1    2    0    0 +1.9351397929e+02 -2.8453547183e+02 +2.0461152479e+03 2.1633722837e+03 6.1252260000e+02 0.0000e+00 -1.0000e+00
       21  1    1    2  502  501 -2.4471488055e+01 +5.1293902381e+01 +7.2257314159e+01 9.1929525173e+01 0.0000000000e+00 0.0000e+00 1.0000e+00
<mgrwt>
<rscale>  1 0.69677885E+03</rscale>
<asrwt>0</asrwt>
<pdfrwt beam="1">  1        2 0.41782240E+00 0.69677885E+03</pdfrwt>
<pdfrwt beam="2">  1       -2 0.43843597E-01 0.69677885E+03</pdfrwt>
<totfact> 0.13627263E+01</totfact>
</mgrwt>
</event>
<event>
 5      1 +1.8937969e-08 6.64249600e+02 7.81665300e-03 9.78040200e-02
       -2 -1    0    0    0  501 -0.0000000000e+00 +0.0000000000e+00 +5.1078285587e+02 5.1078285587e+02 2.5000000000e-03 0.0000e+00 1.0000e+00
        2 -1    0    0  502    0 +0.0000000000e+00 -0.0000000000e+00 -1.7140886816e+03 1.7140886816e+03 2.5000000000e-03 0.0000e+00 -1.0000e+00
  1000022  1    1    2    0    0 -5.4358341026e+01 +2.4093706937e+02 +1.4092409650e+02 6.7531402852e+02 6.1252260000e+02 0.0000e+00 1.0000e+00
  1000022  1    1    2    0    0 +6.2192501361e+00 -3.1008492042e+02 -1.1955560218e+03 1.3786694578e+03 6.1252260000e+02 0.0000e+00 -1.0000e+00
       21  1    1    2  502  501 +4.8139090890e+01 +6.9147851047e+01 -1.4867390043e+02 1.7088805121e+02 0.0000000000e+00 0.0000e+00 -1.0000e+00
<mgrwt>
<rscale>  1 0.66424961E+03</rscale>
<asrwt>0</asrwt>
<pdfrwt beam="2">  1        2 0.26370595E+00 0.66424961E+03</pdfrwt>
<pdfrwt beam="1">  1       -2 0.78581979E-01 0.66424961E+03</pdfrwt>
<totfact> 0.14432922E+01</totfact>
</mgrwt>
</event>
<event>
 5      1 +1.8937969e-08 7.30203800e+02 7.81665300e-03 9.66693000e-02
        1 -1    0    0  502    0 +0.0000000000e+00 +0.0000000000e+00 +6.8543530825e+02 6.8543530826e+02 5.0000000000e-03 0.0000e+00 1.0000e+00
       -1 -1    0    0    0  501 -0.0000000000e+00 -0.0000000000e+00 -1.7286474361e+03 1.7286474362e+03 5.0000000000e-03 0.0000e+00 -1.0000e+00
  1000022  1    1    2    0    0 +2.4647717188e+01 +1.7523399816e+02 -1.0049001783e+02 6.4544298220e+02 6.1252260000e+02 0.0000e+00 1.0000e+00
  1000022  1    1    2    0    0 +1.3305479543e+02 -4.8763687973e+02 -1.1226494445e+03 1.3751432710e+03 6.1252260000e+02 0.0000e+00 -1.0000e+00
       21  1    1    2  502  501 -1.5770251262e+02 +3.1240288157e+02 +1.7992733444e+02 3.9349649119e+02 0.0000000000e+00 0.0000e+00 1.0000e+00
<mgrwt>
<rscale>  1 0.73020376E+03</rscale>
<asrwt>0</asrwt>
<pdfrwt beam="1">  1        1 0.10545159E+00 0.73020376E+03</pdfrwt>
<pdfrwt beam="2">  1       -1 0.26594576E+00 0.73020376E+03</pdfrwt>
<totfact> 0.16257968E+00</totfact>
</mgrwt>
</event>
<event>
 5      1 +1.8937969e-08 1.11505400e+03 7.81665300e-03 9.19064200e-02
        2 -1    0    0  502    0 +0.0000000000e+00 +0.0000000000e+00 +1.2031667634e+03 1.2031667634e+03 2.5000000000e-03 0.0000e+00 -1.0000e+00
       -2 -1    0    0    0  501 -0.0000000000e+00 -0.0000000000e+00 -1.6778385829e+03 1.6778385829e+03 2.5000000000e-03 0.0000e+00 1.0000e+00
  1000022  1    1    2    0    0 +6.9269673871e+02 -5.6108001789e+02 +1.9553276263e+02 1.0991162609e+03 6.1252260000e+02 0.0000e+00 -1.0000e+00
  1000022  1    1    2    0    0 -7.2347321352e+02 +6.1266632900e+02 -9.6257540013e+02 1.4834112234e+03 6.1252260000e+02 0.0000e+00 1.0000e+00
       21  1    1    2  502  501 +3.0776474812e+01 -5.1586311107e+01 +2.9237081798e+02 2.9847786199e+02 0.0000000000e+00 0.0000e+00 -1.0000e+00
<mgrwt>
<rscale>  1 0.11150537E+04</rscale>
<asrwt>0</asrwt>
<pdfrwt beam="1">  1        2 0.18510258E+00 0.11150537E+04</pdfrwt>
<pdfrwt beam="2">  1       -2 0.25812901E+00 0.11150537E+04</pdfrwt>
<totfact> 0.10619950E+00</totfact>
</mgrwt>
</event>
<event>
 5      1 +1.8937969e-08 8.86695700e+02 7.81665300e-03 9.44236700e-02
       -3 -1    0    0    0  501 -0.0000000000e+00 +0.0000000000e+00 +2.6017442080e+03 2.6017442097e+03 9.5000000000e-02 0.0000e+00 -1.0000e+00
       21 -1    0    0  501  502 +0.0000000000e+00 -0.0000000000e+00 -6.7825877284e+02 6.7825877284e+02 0.0000000000e+00 0.0000e+00 -1.0000e+00
  1000022  1    1    2    0    0 -4.3404513897e+02 +5.6312941550e+02 +1.3071956859e+03 1.6091781809e+03 6.1252260000e+02 0.0000e+00 1.0000e+00
  1000022  1    1    2    0    0 +3.9010639784e+02 -4.1657271848e+02 +9.7245500588e+02 1.2831868552e+03 6.1252260000e+02 0.0000e+00 1.0000e+00
       -3  1    1    2    0  502 +4.3938741128e+01 -1.4655669702e+02 -3.5616525665e+02 3.8763794639e+02 9.5000000000e-02 0.0000e+00 1.0000e+00
<mgrwt>
<rscale>  1 0.88669574E+03</rscale>
<asrwt>0</asrwt>
<pdfrwt beam="2">  1       21 0.10434751E+00 0.88669574E+03</pdfrwt>
<pdfrwt beam="1">  1       -3 0.40026833E+00 0.88669574E+03</pdfrwt>
<totfact> 0.34387013E-01</totfact>
</mgrwt>
</event>
<event>
 5      1 +1.8937969e-08 8.16768700e+02 7.81665300e-03 9.53605700e-02
        3 -1    0    0  502    0 +0.0000000000e+00 +0.0000000000e+00 +2.6267231328e+02 2.6267233046e+02 9.5000000000e-02 0.0000e+00 1.0000e+00
       -3 -1    0    0    0  501 -0.0000000000e+00 -0.0000000000e+00 -3.2147488411e+03 3.2147488425e+03 9.5000000000e-02 0.0000e+00 1.0000e+00
  1000022  1    1    2    0    0 +1.4640918985e+02 -5.4941769251e+02 -9.4057845565e+02 1.2582397301e+03 6.1252260000e+02 0.0000e+00 -1.0000e+00
  1000022  1    1    2    0    0 -1.7707818743e+02 +4.9629123002e+02 -1.9996273595e+03 2.1567000676e+03 6.1252260000e+02 0.0000e+00 -1.0000e+00
       21  1    1    2  502  501 +3.0668997583e+01 +5.3126462487e+01 -1.1870712706e+01 6.2481375219e+01 0.0000000000e+00 0.0000e+00 -1.0000e+00
<mgrwt>
<rscale>  1 0.81676870E+03</rscale>
<asrwt>0</asrwt>
<pdfrwt beam="1">  1        3 0.40411129E-01 0.81676870E+03</pdfrwt>
<pdfrwt beam="2">  1       -3 0.49457672E+00 0.81676870E+03</pdfrwt>
<totfact> 0.53581733E-02</totfact>
</mgrwt>
</event>
<event>
 5      1 +1.8937969e-08 8.64181900e+02 7.81665300e-03 9.47149800e-02
        3 -1    0    0  502    0 +0.0000000000e+00 +0.0000000000e+00 +8.1366151362e+02 8.1366151916e+02 9.5000000000e-02 0.0000e+00 1.0000e+00
       -3 -1    0    0    0  501 -0.0000000000e+00 -0.0000000000e+00 -1.2723173256e+03 1.2723173291e+03 9.5000000000e-02 0.0000e+00 1.0000e+00
  1000022  1    1    2    0    0 +6.1539136037e+02 -7.6856391673e+01 +6.4647305391e+01 8.7405757303e+02 6.1252260000e+02 0.0000e+00 -1.0000e+00
  1000022  1    1    2    0    0 -5.6754069287e+02 +2.0624536197e+02 -2.3397174800e+02 8.9138448594e+02 6.1252260000e+02 0.0000e+00 -1.0000e+00
       21  1    1    2  502  501 -4.7850667505e+01 -1.2938897030e+02 -2.8933136937e+02 3.2053678933e+02 0.0000000000e+00 0.0000e+00 -1.0000e+00
<mgrwt>
<rscale>  1 0.86418191E+03</rscale>
<asrwt>0</asrwt>
<pdfrwt beam="1">  1        3 0.12517869E+00 0.86418191E+03</pdfrwt>
<pdfrwt beam="2">  1       -3 0.19574113E+00 0.86418191E+03</pdfrwt>
<totfact> 0.20443025E-01</totfact>
</mgrwt>
</event>
<event>
 5      1 +1.8937969e-08 8.24446700e+02 7.81665300e-03 9.52529000e-02
        3 -1    0    0  502    0 -0.0000000000e+00 +0.0000000000e+00 +1.0095166135e+03 1.0095166179e+03 9.5000000000e-02 0.0000e+00 1.0000e+00
       21 -1    0    0  501  502 +0.0000000000e+00 -0.0000000000e+00 -8.3429399901e+02 8.3429399901e+02 0.0000000000e+00 0.0000e+00 1.0000e+00
  1000022  1    1    2    0    0 -5.8258594659e+02 +3.6179807569e+01 -1.7622145128e+02 8.6426460013e+02 6.1252260000e+02 0.0000e+00 -1.0000e+00
  1000022  1    1    2    0    0 +5.3531592009e+02 -3.3706264447e+01 +4.0392941965e+02 9.0886861434e+02 6.1252260000e+02 0.0000e+00 -1.0000e+00
        3  1    1    2  501    0 +4.7270026505e+01 -2.4735431217e+00 -5.2485353910e+01 7.0677402481e+01 9.5000000000e-02 0.0000e+00 -1.0000e+00
<mgrwt>
<rscale>  1 0.82444669E+03</rscale>
<asrwt>0</asrwt>
<pdfrwt beam="2">  1       21 0.12835292E+00 0.82444669E+03</pdfrwt>
<pdfrwt beam="1">  1        3 0.15531025E+00 0.82444669E+03</pdfrwt>
<totfact> 0.56273809E+00</totfact>
</mgrwt>
</event>
<event>
 5      1 +1.8937969e-08 6.76456800e+02 7.81665300e-03 9.75836300e-02
       -3 -1    0    0    0  501 -0.0000000000e+00 +0.0000000000e+00 +8.5728443738e+02 8.5728444264e+02 9.5000000000e-02 0.0000e+00 1.0000e+00
        3 -1    0    0  502    0 +0.0000000000e+00 -0.0000000000e+00 -9.6160160600e+02 9.6160161070e+02 9.5000000000e-02 0.0000e+00 1.0000e+00
  1000022  1    1    2    0    0 -1.7995285169e+02 -2.1684676758e+02 +5.1249413198e+02 8.4690006510e+02 6.1252260000e+02 0.0000e+00 -1.0000e+00
  1000022  1    1    2    0    0 +1.5907506887e+02 +2.7088887166e+02 -5.9563463015e+02 9.1030226105e+02 6.1252260000e+02 0.0000e+00 -1.0000e+00
       21  1    1    2  502  501 +2.0877782816e+01 -5.4042104081e+01 -2.1176670453e+01 6.1683727192e+01 0.0000000000e+00 0.0000e+00 -1.0000e+00
<mgrwt>
<rscale>  1 0.67645678E+03</rscale>
<asrwt>0</asrwt>
<pdfrwt beam="2">  1        3 0.14793871E+00 0.67645678E+03</pdfrwt>
<pdfrwt beam="1">  1       -3 0.13188991E+00 0.67645678E+03</pdfrwt>
<totfact> 0.39029707E-01</totfact>
</mgrwt>
</event>
<event>
 5      1 +1.8937969e-08 8.48501600e+02 7.81665300e-03 9.49235000e-02
        3 -1    0    0  502    0 +0.0000000000e+00 +0.0000000000e+00 +2.5686615351e+03 2.5686615368e+03 9.5000000000e-02 0.0000e+00 1.0000e+00
       -3 -1    0    0    0  501 -0.0000000000e+00 -0.0000000000e+00 -3.6022851575e+02 3.6022852828e+02 9.5000000000e-02 0.0000e+00 1.0000e+00
  1000022  1    1    2    0    0 -3.3253129505e+02 -3.9993623709e+02 +6.4490989336e+02 1.0303488545e+03 6.1252260000e+02 0.0000e+00 -1.0000e+00
  1000022  1    1    2    0    0 +3.1851337282e+02 +5.4546695250e+02 +1.5002572018e+03 1.7392356287e+03 6.1252260000e+02 0.0000e+00 -1.0000e+00
       21  1    1    2  502  501 +1.4017922227e+01 -1.4553071541e+02 +6.3265924116e+01 1.5930558190e+02 0.0000000000e+00 0.0000e+00 1.0000e+00
<mgrwt>
<rscale>  1 0.84850156E+03</rscale>
<asrwt>0</asrwt>
<pdfrwt beam="1">  1        3 0.39517870E+00 0.84850156E+03</pdfrwt>
<pdfrwt beam="2">  1       -3 0.55419773E-01 0.84850156E+03</pdfrwt>
<totfact> 0.10059030E-01</totfact>
</mgrwt>
</event>
<event>
 5      1 +1.8937969e-08 8.51105100e+02 7.81665300e-03 9.48885500e-02
        2 -1    0    0  502    0 +0.0000000000e+00 +0.0000000000e+00 +4.5144569939e+02 4.5144569939e+02 2.5000000000e-03 0.0000e+00 1.0000e+00
       -2 -1    0    0    0  501 -0.0000000000e+00 -0.0000000000e+00 -1.7827097563e+03 1.7827097563e+03 2.5000000000e-03 0.0000e+00 -1.0000e+00
  1000022  1    1    2    0    0 -6.0755220081e+02 -1.9320776148e+01 -7.0197529128e+02 1.1124055979e+03 6.1252260000e+02 0.0000e+00 -1.0000e+00
  1000022  1    1    2    0    0 +5.6947204616e+02 +8.2374155996e+01 -6.2616729762e+02 1.0480235365e+03 6.1252260000e+02 0.0000e+00 1.0000e+00
       21  1    1    2  502  501 +3.8080154651e+01 -6.3053379848e+01 -3.1214679833e+00 7.3726321290e+01 0.0000000000e+00 0.0000e+00 1.0000e+00
<mgrwt>
<rscale>  1 0.85110506E+03</rscale>
<asrwt>0</asrwt>
<pdfrwt beam="1">  1        2 0.69453185E-01 0.85110506E+03</pdfrwt>
<pdfrwt beam="2">  1       -2 0.27426304E+00 0.85110506E+03</pdfrwt>
<totfact> 0.32291712E+00</totfact>
</mgrwt>
</event>
<event>
 5      1 +1.8937969e-08 7.37766700e+02 7.81665300e-03 9.65474000e-02
        3 -1    0    0  502    0 +0.0000000000e+00 +0.0000000000e+00 +6.2855020712e+02 6.2855021430e+02 9.5000000000e-02 0.0000e+00 1.0000e+00
       -3 -1    0    0    0  501 -0.0000000000e+00 -0.0000000000e+00 -1.2405638905e+03 1.2405638941e+03 9.5000000000e-02 0.0000e+00 1.0000e+00
  1000022  1    1    2    0    0 -2.7281516730e+02 +3.3491187711e+02 -7.7838537690e+02 1.0805840141e+03 6.1252260000e+02 0.0000e+00 -1.0000e+00
  1000022  1    1    2    0    0 +2.6628081080e+02 -3.0496899281e+02 +1.7842125905e+02 7.5559886049e+02 6.1252260000e+02 0.0000e+00 -1.0000e+00
       21  1    1    2  502  501 +6.5343564968e+00 -2.9942884305e+01 -1.2049565497e+01 3.2931233867e+01 0.0000000000e+00 0.0000e+00 -1.0000e+00
<mgrwt>
<rscale>  1 0.73776668E+03</rscale>
<asrwt>0</asrwt>
<pdfrwt beam="1">  1        3 0.96700033E-01 0.73776668E+03</pdfrwt>
<pdfrwt beam="2">  1       -3 0.19085598E+00 0.73776668E+03</pdfrwt>
<totfact> 0.41218356E-01</totfact>
</mgrwt>
</event>
<event>
 5      1 +1.8937969e-08 8.56916200e+02 7.81665300e-03 9.48110100e-02
       -1 -1    0    0    0  501 -0.0000000000e+00 +0.0000000000e+00 +5.5904189245e+02 5.5904189247e+02 5.0000000000e-03 0.0000e+00 1.0000e+00
        1 -1    0    0  502    0 +0.0000000000e+00 -0.0000000000e+00 -2.6549215438e+03 2.6549215438e+03 5.0000000000e-03 0.0000e+00 -1.0000e+00
  1000022  1    1    2    0    0 -4.3855014603e+02 -2.6748527672e+02 -9.4251182401e+02 1.2358750251e+03 6.1252260000e+02 0.0000e+00 -1.0000e+00
  1000022  1    1    2    0    0 +7.5298524060e+02 -1.8526352059e+01 -1.2077456792e+03 1.5495688302e+03 6.1252260000e+02 0.0000e+00 1.0000e+00
       21  1    1    2  502  501 -3.1443509457e+02 +2.8601162878e+02 +5.4377851867e+01 4.2851958097e+02 0.0000000000e+00 0.0000e+00 -1.0000e+00
<mgrwt>
<rscale>  1 0.85691624E+03</rscale>
<asrwt>0</asrwt>
<pdfrwt beam="2">  1        1 0.40844946E+00 0.85691624E+03</pdfrwt>
<pdfrwt beam="1">  1       -1 0.86006446E-01 0.85691624E+03</pdfrwt>
<totfact> 0.14744301E+00</totfact>
</mgrwt>
</event>
<event>
 5      1 +1.8937969e-08 8.67705500e+02 7.81665300e-03 9.46687700e-02
       21 -1    0    0  501  502 +0.0000000000e+00 +0.0000000000e+00 +1.6696575669e+03 1.6696575669e+03 0.0000000000e+00 0.0000e+00 1.0000e+00
       -3 -1    0    0    0  501 -0.0000000000e+00 -0.0000000000e+00 -4.9148480355e+02 4.9148481273e+02 9.5000000000e-02 0.0000e+00 1.0000e+00
  1000022  1    1    2    0    0 -5.2812752325e+02 +3.0857147056e+02 +6.8198238642e+02 1.1020067805e+03 6.1252260000e+02 0.0000e+00 -1.0000e+00
  1000022  1    1    2    0    0 +5.5478599766e+02 -2.7132445495e+02 +4.1016858958e+02 9.6167908912e+02 6.1252260000e+02 0.0000e+00 -1.0000e+00
       -3  1    1    2    0  502 -2.6658474410e+01 -3.7247015612e+01 +8.6021787397e+01 9.7456510105e+01 9.5000000000e-02 0.0000e+00 -1.0000e+00
<mgrwt>
<rscale>  1 0.86770548E+03</rscale>
<asrwt>0</asrwt>
<pdfrwt beam="1">  1       21 0.25687039E+00 0.86770548E+03</pdfrwt>
<pdfrwt beam="2">  1       -3 0.75613048E-01 0.86770548E+03</pdfrwt>
<totfact> 0.37696228E+00</totfact>
</mgrwt>
</event>
<event>
 5      1 +1.8937969e-08 7.55899900e+02 7.81665300e-03 9.62614000e-02
       -1 -1    0    0    0  501 -0.0000000000e+00 +0.0000000000e+00 +2.8317956032e+02 2.8317956037e+02 5.0000000000e-03 0.0000e+00 1.0000e+00
        1 -1    0    0  502    0 +0.0000000000e+00 -0.0000000000e+00 -2.2077527160e+03 2.2077527160e+03 5.0000000000e-03 0.0000e+00 -1.0000e+00
  1000022  1    1    2    0    0 +1.2220602349e+02 +4.5225682808e+02 -1.0289536299e+03 1.2858460478e+03 6.1252260000e+02 0.0000e+00 -1.0000e+00
  1000022  1    1    2    0    0 -8.2022833115e+01 -4.0800649649e+02 -8.6236469195e+02 1.1366854639e+03 6.1252260000e+02 0.0000e+00 1.0000e+00
       21  1    1    2  502  501 -4.0183190372e+01 -4.4250331592e+01 -3.3254833811e+01 6.8400764662e+01 0.0000000000e+00 0.0000e+00 1.0000e+00
<mgrwt>
<rscale>  1 0.75589985E+03</rscale>
<asrwt>0</asrwt>
<pdfrwt beam="2">  1        1 0.33965425E+00 0.75589985E+03</pdfrwt>
<pdfrwt beam="1">  1       -1 0.43566088E-01 0.75589985E+03</pdfrwt>
<totfact> 0.11721454E+01</totfact>
</mgrwt>
</event>
<event>
 5      1 +1.8937969e-08 7.35311400e+02 7.81665300e-03 9.65868000e-02
        3 -1    0    0  502    0 +0.0000000000e+00 +0.0000000000e+00 +6.7628257525e+02 6.7628258192e+02 9.5000000000e-02 0.0000e+00 -1.0000e+00
       -3 -1    0    0    0  501 -0.0000000000e+00 -0.0000000000e+00 -1.1435570243e+03 1.1435570283e+03 9.5000000000e-02 0.0000e+00 -1.0000e+00
  1000022  1    1    2    0    0 -1.0085829060e+02 +3.9299090044e+02 +2.4925405264e+02 7.7583874670e+02 6.1252260000e+02 0.0000e+00 1.0000e+00
  1000022  1    1    2    0    0 +1.2186678391e+02 -3.9227658089e+02 -7.0374371608e+02 1.0193976566e+03 6.1252260000e+02 0.0000e+00 1.0000e+00
       21  1    1    2  502  501 -2.1008493312e+01 -7.1431954685e-01 -1.2784785628e+01 2.4603206848e+01 0.0000000000e+00 0.0000e+00 1.0000e+00
<mgrwt>
<rscale>  1 0.73531142E+03</rscale>
<asrwt>0</asrwt>
<pdfrwt beam="1">  1        3 0.10404347E+00 0.73531142E+03</pdfrwt>
<pdfrwt beam="2">  1       -3 0.17593185E+00 0.73531142E+03</pdfrwt>
<totfact> 0.43568339E-01</totfact>
</mgrwt>
</event>
<event>
 5      1 +1.8937969e-08 7.62922300e+02 7.81665300e-03 9.61529300e-02
        3 -1    0    0  502    0 +0.0000000000e+00 +0.0000000000e+00 +5.7754065931e+02 5.7754066713e+02 9.5000000000e-02 0.0000e+00 1.0000e+00
       -3 -1    0    0    0  501 -0.0000000000e+00 -0.0000000000e+00 -2.1460407611e+03 2.1460407632e+03 9.5000000000e-02 0.0000e+00 1.0000e+00
  1000022  1    1    2    0    0 +4.0684161532e+02 -2.1082969075e+02 -1.5131822589e+03 1.6955452641e+03 6.1252260000e+02 0.0000e+00 -1.0000e+00
  1000022  1    1    2    0    0 -3.6356202787e+02 +2.6257856844e+02 -2.6787885844e+02 8.0502662753e+02 6.1252260000e+02 0.0000e+00 -1.0000e+00
       21  1    1    2  502  501 -4.3279587449e+01 -5.1748877691e+01 +2.1256101554e+02 2.2300953872e+02 0.0000000000e+00 0.0000e+00 -1.0000e+00
<mgrwt>
<rscale>  1 0.76292228E+03</rscale>
<asrwt>0</asrwt>
<pdfrwt beam="1">  1        3 0.88852411E-01 0.76292228E+03</pdfrwt>
<pdfrwt beam="2">  1       -3 0.33016011E+00 0.76292228E+03</pdfrwt>
<totfact> 0.78487878E-02</totfact>
</mgrwt>
</event>
<event>
 5      1 +1.8937969e-08 8.58570100e+02 7.81665300e-03 9.47890600e-02
       21 -1    0    0  501  502 +0.0000000000e+00 +0.0000000000e+00 +5.7636703699e+02 5.7636703699e+02 0.0000000000e+00 0.0000e+00 1.0000e+00
        3 -1    0    0  502    0 -0.0000000000e+00 -0.0000000000e+00 -1.5284295767e+03 1.5284295797e+03 9.5000000000e-02 0.0000e+00 1.0000e+00
  1000022  1    1    2    0    0 -6.1361459023e+02 -8.3337507263e+01 -2.3308004027e+02 9.0165306307e+02 6.1252260000e+02 0.0000e+00 -1.0000e+00
  1000022  1    1    2    0    0 +5.8542265513e+02 +8.5681278548e+01 -7.6785928718e+02 1.1466703044e+03 6.1252260000e+02 0.0000e+00 -1.0000e+00
        3  1    1    2  501    0 +2.8191935097e+01 -2.3437712858e+00 +4.8876787716e+01 5.6473249161e+01 9.5000000000e-02 0.0000e+00 -1.0000e+00
<mgrwt>
<rscale>  1 0.85857008E+03</rscale>
<asrwt>0</asrwt>
<pdfrwt beam="1">  1       21 0.88671854E-01 0.85857008E+03</pdfrwt>
<pdfrwt beam="2">  1        3 0.23514301E+00 0.85857008E+03</pdfrwt>
<totfact> 0.43250801E+00</totfact>
</mgrwt>
</event>
<event>
 5      1 +1.8937969e-08 8.33908200e+02 7.81665300e-03 9.51219300e-02
        3 -1    0    0  502    0 +0.0000000000e+00 +0.0000000000e+00 +1.0619886474e+03 1.0619886516e+03 9.5000000000e-02 0.0000e+00 1.0000e+00
       -3 -1    0    0    0  501 -0.0000000000e+00 -0.0000000000e+00 -1.3409233938e+03 1.3409233972e+03 9.5000000000e-02 0.0000e+00 1.0000e+00
  1000022  1    1    2    0    0 +3.2205095650e+02 -3.6553979348e+02 +3.1464630410e+02 8.4351786667e+02 6.1252260000e+02 0.0000e+00 -1.0000e+00
  1000022  1    1    2    0    0 -3.7018581498e+02 +6.1506911039e+02 -3.3407135031e+01 9.4427089352e+02 6.1252260000e+02 0.0000e+00 -1.0000e+00
       21  1    1    2  502  501 +4.8134858479e+01 -2.4952931691e+02 -5.6017391547e+02 6.1512328859e+02 0.0000000000e+00 0.0000e+00 1.0000e+00
<mgrwt>
<rscale>  1 0.83390820E+03</rscale>
<asrwt>0</asrwt>
<pdfrwt beam="1">  1        3 0.16338287E+00 0.83390820E+03</pdfrwt>
<pdfrwt beam="2">  1       -3 0.20629591E+00 0.83390820E+03</pdfrwt>
<totfact> 0.88758966E-02</totfact>
</mgrwt>
</event>
<event>
 5      1 +1.8937969e-08 1.19668300e+03 7.81665300e-03 9.11576500e-02
        2 -1    0    0  502    0 +0.0000000000e+00 +0.0000000000e+00 +2.1707270964e+03 2.1707270964e+03 2.5000000000e-03 0.0000e+00 -1.0000e+00
       -2 -1    0    0    0  501 -0.0000000000e+00 -0.0000000000e+00 -8.8541673354e+02 8.8541673354e+02 2.5000000000e-03 0.0000e+00 1.0000e+00
  1000022  1    1    2    0    0 +3.6063540351e+02 +9.4588413648e+02 +7.1180932520e+01 1.1853292178e+03 6.1252260000e+02 0.0000e+00 -1.0000e+00
  1000022  1    1    2    0    0 -2.0613329038e+02 -1.0510599804e+03 +1.0148182558e+03 1.5975788067e+03 6.1252260000e+02 0.0000e+00 1.0000e+00
       21  1    1    2  502  501 -1.5450211313e+02 +1.0517584388e+02 +1.9931117456e+02 2.7323580549e+02 0.0000000000e+00 0.0000e+00 -1.0000e+00
<mgrwt>
<rscale>  1 0.11966832E+04</rscale>
<asrwt>0</asrwt>
<pdfrwt beam="1">  1        2 0.33395801E+00 0.11966832E+04</pdfrwt>
<pdfrwt beam="2">  1       -2 0.13621796E+00 0.11966832E+04</pdfrwt>
<totfact> 0.20183729E+00</totfact>
</mgrwt>
</event>
<event>
 5      1 +1.8937969e-08 7.73648500e+02 7.81665300e-03 9.59896300e-02
        3 -1    0    0  502    0 +0.0000000000e+00 +0.0000000000e+00 +1.1168133282e+03 1.1168133322e+03 9.5000000000e-02 0.0000e+00 1.0000e+00
       -3 -1    0    0    0  501 -0.0000000000e+00 -0.0000000000e+00 -7.2538200779e+02 7.2538201401e+02 9.5000000000e-02 0.0000e+00 1.0000e+00
  1000022  1    1    2    0    0 -4.3363498202e+02 -9.7259644438e+01 +6.2806919383e+02 9.8343966964e+02 6.1252260000e+02 0.0000e+00 -1.0000e+00
  1000022  1    1    2    0    0 +4.7217685780e+02 +9.9647746390e+01 -2.4839200901e+02 8.1839060604e+02 6.1252260000e+02 0.0000e+00 -1.0000e+00
       21  1    1    2  502  501 -3.8541875780e+01 -2.3881019522e+00 +1.1754135599e+01 4.0365070584e+01 0.0000000000e+00 0.0000e+00 -1.0000e+00
<mgrwt>
<rscale>  1 0.77364847E+03</rscale>
<asrwt>0</asrwt>
<pdfrwt beam="1">  1        3 0.17181744E+00 0.77364847E+03</pdfrwt>
<pdfrwt beam="2">  1       -3 0.11159723E+00 0.77364847E+03</pdfrwt>
<totfact> 0.39324797E-01</totfact>
</mgrwt>
</event>
<event>
 5      1 +1.8937969e-08 1.09336000e+03 7.81665300e-03 9.21168800e-02
       -2 -1    0    0    0  501 -0.0000000000e+00 +0.0000000000e+00 +4.2661095239e+02 4.2661095240e+02 2.5000000000e-03 0.0000e+00 -1.0000e+00
        2 -1    0    0  502    0 +0.0000000000e+00 -0.0000000000e+00 -3.6061104731e+03 3.6061104731e+03 2.5000000000e-03 0.0000e+00 1.0000e+00
  1000022  1    1    2    0    0 +9.1283743309e+02 -2.4922373976e+00 -8.9489543927e+02 1.4174978565e+03 6.1252260000e+02 0.0000e+00 -1.0000e+00
  1000022  1    1    2    0    0 -8.9488810814e+02 +1.3871164719e+02 -2.1920592085e+03 2.4495659118e+03 6.1252260000e+02 0.0000e+00 1.0000e+00
       21  1    1    2  502  501 -1.7949324944e+01 -1.3621940980e+02 -9.2544872900e+01 1.6565765715e+02 0.0000000000e+00 0.0000e+00 -1.0000e+00
<mgrwt>
<rscale>  1 0.10933602E+04</rscale>
<asrwt>0</asrwt>
<pdfrwt beam="2">  1        2 0.55478621E+00 0.10933602E+04</pdfrwt>
<pdfrwt beam="1">  1       -2 0.65632456E-01 0.10933602E+04</pdfrwt>
<totfact> 0.14965228E+00</totfact>
</mgrwt>
</event>
<event>
 5      1 +1.8937969e-08 6.80429000e+02 7.81665300e-03 9.75129900e-02
        2 -1    0    0  502    0 +0.0000000000e+00 +0.0000000000e+00 +8.4410030112e+02 8.4410030113e+02 2.5000000000e-03 0.0000e+00 -1.0000e+00
       -2 -1    0    0    0  501 -0.0000000000e+00 -0.0000000000e+00 -2.2356204573e+03 2.2356204573e+03 2.5000000000e-03 0.0000e+00 1.0000e+00
  1000022  1    1    2    0    0 +3.5715931244e+02 -2.2458349146e+02 +4.8573137591e+02 8.8832394100e+02 6.1252260000e+02 0.0000e+00 -1.0000e+00
  1000022  1    1    2    0    0 -2.8871795501e+02 -5.6281669289e+01 -1.7466789971e+03 1.8741923962e+03 6.1252260000e+02 0.0000e+00 1.0000e+00
       21  1    1    2  502  501 -6.8441357422e+01 +2.8086516075e+02 -1.3057253504e+02 3.1720442121e+02 0.0000000000e+00 0.0000e+00 -1.0000e+00
<mgrwt>
<rscale>  1 0.68042898E+03</rscale>
<asrwt>0</asrwt>
<pdfrwt beam="1">  1        2 0.12986159E+00 0.68042898E+03</pdfrwt>
<pdfrwt beam="2">  1       -2 0.34394161E+00 0.68042898E+03</pdfrwt>
<totfact> 0.58317533E-01</totfact>
</mgrwt>
</event>
<event>
 5      1 +1.8937969e-08 9.73852600e+02 7.81665300e-03 9.33769700e-02
       21 -1    0    0  501  502 +0.0000000000e+00 +0.0000000000e+00 +4.5427560589e+02 4.5427560589e+02 0.0000000000e+00 0.0000e+00 -1.0000e+00
        2 -1    0    0  502    0 -0.0000000000e+00 -0.0000000000e+00 -3.5707637922e+03 3.5707637922e+03 2.5000000000e-03 0.0000e+00 1.0000e+00
  1000022  1    1    2    0    0 +6.7395808510e+02 +6.0586951685e+01 -1.7188646289e+03 1.9461679854e+03 6.1252260000e+02 0.0000e+00 1.0000e+00
  1000022  1    1    2    0    0 -9.1176779529e+02 +2.2688753342e+02 -1.2451678004e+03 1.6758356877e+03 6.1252260000e+02 0.0000e+00 -1.0000e+00
        2  1    1    2  501    0 +2.3780971019e+02 -2.8747448511e+02 -1.5245575702e+02 4.0303572510e+02 2.5000000000e-03 0.0000e+00 1.0000e+00
<mgrwt>
<rscale>  1 0.97385262E+03</rscale>
<asrwt>0</asrwt>
<pdfrwt beam="1">  1       21 0.69888554E-01 0.97385262E+03</pdfrwt>
<pdfrwt beam="2">  1        2 0.54934828E+00 0.97385262E+03</pdfrwt>
<totfact> 0.15207092E+01</totfact>
</mgrwt>
</event>
<event>
 5      1 +1.8937969e-08 9.12973100e+02 7.81665300e-03 9.40950800e-02
        1 -1    0    0  502    0 +0.0000000000e+00 +0.0000000000e+00 +8.6690120897e+02 8.6690120899e+02 5.0000000000e-03 0.0000e+00 -1.0000e+00
       -1 -1    0    0    0  501 -0.0000000000e+00 -0.0000000000e+00 -1.6767515354e+03 1.6767515354e+03 5.0000000000e-03 0.0000e+00 1.0000e+00
  1000022  1    1    2    0    0 +2.5649269614e+02 +6.1844980734e+02 +3.0115469947e+02 9.5611022162e+02 6.1252260000e+02 0.0000e+00 -1.0000e+00
  1000022  1    1    2    0    0 -4.2400994057e+02 -5.7702766699e+02 -8.1956288612e+02 1.2488445131e+03 6.1252260000e+02 0.0000e+00 1.0000e+00
       21  1    1    2  502  501 +1.6751724443e+02 -4.1422140347e+01 -2.9144213976e+02 3.3869800962e+02 0.0000000000e+00 0.0000e+00 -1.0000e+00
<mgrwt>
<rscale>  1 0.91297305E+03</rscale>
<asrwt>0</asrwt>
<pdfrwt beam="1">  1        1 0.13336942E+00 0.91297305E+03</pdfrwt>
<pdfrwt beam="2">  1       -1 0.25796177E+00 0.91297305E+03</pdfrwt>
<totfact> 0.12252099E+00</totfact>
</mgrwt>
</event>
<event>
 5      1 +1.8937969e-08 7.29658500e+02 7.81665300e-03 9.66781500e-02
        2 -1    0    0  502    0 +0.0000000000e+00 +0.0000000000e+00 +5.1772392680e+02 5.1772392680e+02 2.5000000000e-03 0.0000e+00 -1.0000e+00
       -2 -1    0    0    0  501 -0.0000000000e+00 -0.0000000000e+00 -1.2511672753e+03 1.2511672753e+03 2.5000000000e-03 0.0000e+00 1.0000e+00
  1000022  1    1    2    0    0 +3.6449339077e+02 -1.4296996552e+02 -6.0900611370e+02 9.4835026493e+02 6.1252260000e+02 0.0000e+00 1.0000e+00
  1000022  1    1    2    0    0 -3.9261831245e+02 +1.0579162126e+02 -1.7081095498e+02 7.5478561476e+02 6.1252260000e+02 0.0000e+00 -1.0000e+00
       21  1    1    2  502  501 +2.8124921679e+01 +3.7178344260e+01 +4.6373720185e+01 6.5755322409e+01 0.0000000000e+00 0.0000e+00 1.0000e+00
<mgrwt>
<rscale>  1 0.72965850E+03</rscale>
<asrwt>0</asrwt>
<pdfrwt beam="1">  1        2 0.79649835E-01 0.72965850E+03</pdfrwt>
<pdfrwt beam="2">  1       -2 0.19248727E+00 0.72965850E+03</pdfrwt>
<totfact> 0.90012478E+00</totfact>
</mgrwt>
</event>
<event>
 5      1 +1.8937969e-08 6.24328900e+02 7.81665300e-03 9.85617900e-02
        1 -1    0    0  502    0 +0.0000000000e+00 +0.0000000000e+00 +2.7816924583e+03 2.7816924583e+03 5.0000000000e-03 0.0000e+00 -1.0000e+00
       -1 -1    0    0    0  501 -0.0000000000e+00 -0.0000000000e+00 -2.5872502706e+02 2.5872502711e+02 5.0000000000e-03 0.0000e+00 1.0000e+00
  1000022  1    1    2    0    0 +3.0750684079e+01 +1.2659735269e+02 +2.2033823547e+03 2.2906440646e+03 6.1252260000e+02 0.0000e+00 -1.0000e+00
  1000022  1    1    2    0    0 -4.4086149192e+01 -6.8758905385e+01 +2.7994872315e+02 6.7840002854e+02 6.1252260000e+02 0.0000e+00 1.0000e+00
       21  1    1    2  502  501 +1.3335465113e+01 -5.7838447300e+01 +3.9636353469e+01 7.1373392327e+01 0.0000000000e+00 0.0000e+00 -1.0000e+00
<mgrwt>
<rscale>  1 0.62432886E+03</rscale>
<asrwt>0</asrwt>
<pdfrwt beam="1">  1        1 0.42795269E+00 0.62432886E+03</pdfrwt>
<pdfrwt beam="2">  1       -1 0.39803850E-01 0.62432886E+03</pdfrwt>
<totfact> 0.57517166E+00</totfact>
</mgrwt>
</event>
<event>
 5      1 +1.8937969e-08 6.87963500e+02 7.81665300e-03 9.73804000e-02
       -1 -1    0    0    0  501 -0.0000000000e+00 +0.0000000000e+00 +4.2279000712e+02 4.2279000715e+02 5.0000000000e-03 0.0000e+00 1.0000e+00
        1 -1    0    0  502    0 +0.0000000000e+00 -0.0000000000e+00 -2.0155332296e+03 2.0155332296e+03 5.0000000000e-03 0.0000e+00 1.0000e+00
  1000022  1    1    2    0    0 -3.1394010297e+02 -1.0623201784e+01 -1.4170519601e+01 6.8851723276e+02 6.1252260000e+02 0.0000e+00 -1.0000e+00
  1000022  1    1    2    0    0 +3.0606489499e+02 +7.1893937913e+01 -1.3863366120e+03 1.5478881083e+03 6.1252260000e+02 0.0000e+00 -1.0000e+00
       21  1    1    2  502  501 +7.8752079841e+00 -6.1270736129e+01 -1.9223609086e+02 2.0191789578e+02 0.0000000000e+00 0.0000e+00 1.0000e+00
<mgrwt>
<rscale>  1 0.68796351E+03</rscale>
<asrwt>0</asrwt>
<pdfrwt beam="2">  1        1 0.31008203E+00 0.68796351E+03</pdfrwt>
<pdfrwt beam="1">  1       -1 0.65044618E-01 0.68796351E+03</pdfrwt>
<totfact> 0.73836518E+00</totfact>
</mgrwt>
</event>
<event>
 5      1 +1.8937969e-08 8.35305800e+02 7.81665300e-03 9.51027400e-02
        3 -1    0    0  502    0 +0.0000000000e+00 +0.0000000000e+00 +2.5437541167e+03 2.5437541184e+03 9.5000000000e-02 0.0000e+00 1.0000e+00
       -3 -1    0    0    0  501 -0.0000000000e+00 -0.0000000000e+00 -4.3542274339e+02 4.3542275375e+02 9.5000000000e-02 0.0000e+00 1.0000e+00
  1000022  1    1    2    0    0 +5.4590730187e+02 +1.5459835749e+02 +9.6460369488e+02 1.2757584638e+03 6.1252260000e+02 0.0000e+00 -1.0000e+00
  1000022  1    1    2    0    0 -5.4085111654e+02 -1.7476026825e+02 +3.4436858401e+02 9.0378910083e+02 6.1252260000e+02 0.0000e+00 -1.0000e+00
       21  1    1    2  502  501 -5.0561853268e+00 +2.0161910759e+01 +7.9935909438e+02 7.9962930751e+02 0.0000000000e+00 0.0000e+00 1.0000e+00
<mgrwt>
<rscale>  1 0.83530583E+03</rscale>
<asrwt>0</asrwt>
<pdfrwt beam="1">  1        3 0.39134679E+00 0.83530583E+03</pdfrwt>
<pdfrwt beam="2">  1       -3 0.66988115E-01 0.83530583E+03</pdfrwt>
<totfact> 0.70402695E-02</totfact>
</mgrwt>
</event>
<event>
 5      1 +1.8937969e-08 1.10076800e+03 7.81665300e-03 9.20444400e-02
        2 -1    0    0  502    0 +0.0000000000e+00 +0.0000000000e+00 +8.2089117649e+02 8.2089117650e+02 2.5000000000e-03 0.0000e+00 -1.0000e+00
       -2 -1    0    0    0  501 -0.0000000000e+00 -0.0000000000e+00 -2.0497525316e+03 2.0497525316e+03 2.5000000000e-03 0.0000e+00 1.0000e+00
  1000022  1    1    2    0    0 -8.6540760539e+02 +2.8466354209e+02 -8.9165520173e+02 1.4142830657e+03 6.1252260000e+02 0.0000e+00 1.0000e+00
  1000022  1    1    2    0    0 +8.0711140840e+02 -4.6346893670e+02 -4.8695777003e+02 1.2159539819e+03 6.1252260000e+02 0.0000e+00 -1.0000e+00
       21  1    1    2  502  501 +5.8296196996e+01 +1.7880539460e+02 +1.4975161663e+02 2.4040666049e+02 0.0000000000e+00 0.0000e+00 -1.0000e+00
<mgrwt>
<rscale>  1 0.11007678E+04</rscale>
<asrwt>0</asrwt>
<pdfrwt beam="1">  1        2 0.12629095E+00 0.11007678E+04</pdfrwt>
<pdfrwt beam="2">  1       -2 0.31534654E+00 0.11007678E+04</pdfrwt>
<totfact> 0.84569968E-01</totfact>
</mgrwt>
</event>
<event>
 5      1 +1.8937969e-08 6.76319200e+02 7.81665300e-03 9.75860900e-02
       -1 -1    0    0    0  501 -0.0000000000e+00 +0.0000000000e+00 +6.4184402614e+02 6.4184402616e+02 5.0000000000e-03 0.0000e+00 1.0000e+00
        1 -1    0    0  502    0 +0.0000000000e+00 -0.0000000000e+00 -1.6146088633e+03 1.6146088633e+03 5.0000000000e-03 0.0000e+00 -1.0000e+00
  1000022  1    1    2    0    0 +1.0202218252e+02 -2.9058877185e+02 -1.2314044981e+03 1.4093939597e+03 6.1252260000e+02 0.0000e+00 -1.0000e+00
  1000022  1    1    2    0    0 -1.3689885651e+02 +1.3564760951e+02 +2.4637193374e+02 6.8776786500e+02 6.1252260000e+02 0.0000e+00 1.0000e+00
       21  1    1    2  502  501 +3.4876673998e+01 +1.5494116234e+02 +1.2267727271e+01 1.5929106475e+02 0.0000000000e+00 0.0000e+00 1.0000e+00
<mgrwt>
<rscale>  1 0.67631917E+03</rscale>
<asrwt>0</asrwt>
<pdfrwt beam="2">  1        1 0.24840136E+00 0.67631917E+03</pdfrwt>
<pdfrwt beam="1">  1       -1 0.98745236E-01 0.67631917E+03</pdfrwt>
<totfact> 0.56519408E+00</totfact>
</mgrwt>
</event>
<event>
 5      1 +1.8937969e-08 7.49623600e+02 7.81665300e-03 9.63594100e-02
        1 -1    0    0  502    0 +0.0000000000e+00 +0.0000000000e+00 +1.2796431776e+03 1.2796431776e+03 5.0000000000e-03 0.0000e+00 -1.0000e+00
       -1 -1    0    0    0  501 -0.0000000000e+00 -0.0000000000e+00 -7.2207662385e+02 7.2207662387e+02 5.0000000000e-03 0.0000e+00 1.0000e+00
  1000022  1    1    2    0    0 -3.5770905308e+02 +2.2284852891e+02 +8.1574029370e+02 1.1037361078e+03 6.1252260000e+02 0.0000e+00 -1.0000e+00
  1000022  1    1    2    0    0 +3.8041645650e+02 -2.1095144943e+02 -3.3087024496e+02 8.2089965825e+02 6.1252260000e+02 0.0000e+00 1.0000e+00
       21  1    1    2  502  501 -2.2707403426e+01 -1.1897079477e+01 +7.2696505041e+01 7.7084035414e+01 0.0000000000e+00 0.0000e+00 -1.0000e+00
<mgrwt>
<rscale>  1 0.74962360E+03</rscale>
<asrwt>0</asrwt>
<pdfrwt beam="1">  1        1 0.19686818E+00 0.74962360E+03</pdfrwt>
<pdfrwt beam="2">  1       -1 0.11108871E+00 0.74962360E+03</pdfrwt>
<totfact> 0.72345122E+00</totfact>
</mgrwt>
</event>
<event>
 5      1 +1.8937969e-08 7.30582000e+02 7.81665300e-03 9.66631600e-02
       21 -1    0    0  501  502 +0.0000000000e+00 +0.0000000000e+00 +2.9328838224e+02 2.9328838224e+02 0.0000000000e+00 0.0000e+00 -1.0000e+00
        2 -1    0    0  502    0 -0.0000000000e+00 -0.0000000000e+00 -3.0931768342e+03 3.0931768342e+03 2.5000000000e-03 0.0000e+00 1.0000e+00
  1000022  1    1    2    0    0 -5.2021416211e+02 -3.6686185390e+01 -1.8749948009e+03 2.0402838258e+03 6.1252260000e+02 0.0000e+00 1.0000e+00
  1000022  1    1    2    0    0 +2.0685805261e+02 -4.7634647646e+01 -6.8122440808e+02 9.4037755357e+02 6.1252260000e+02 0.0000e+00 -1.0000e+00
        2  1    1    2  501    0 +3.1335610950e+02 +8.4320833036e+01 -2.4366924297e+02 4.0580383712e+02 2.5000000000e-03 0.0000e+00 1.0000e+00
<mgrwt>
<rscale>  1 0.73058199E+03</rscale>
<asrwt>0</asrwt>
<pdfrwt beam="1">  1       21 0.45121285E-01 0.73058199E+03</pdfrwt>
<pdfrwt beam="2">  1        2 0.47587340E+00 0.73058199E+03</pdfrwt>
<totfact> 0.87155520E+01</totfact>
</mgrwt>
</event>
<event>
 5      1 +1.8937969e-08 8.79427800e+02 7.81665300e-03 9.45166900e-02
       -3 -1    0    0    0  501 -0.0000000000e+00 +0.0000000000e+00 +3.2719735150e+02 3.2719736529e+02 9.5000000000e-02 0.0000e+00 1.0000e+00
        3 -1    0    0  502    0 +0.0000000000e+00 -0.0000000000e+00 -2.5947013480e+03 2.5947013497e+03 9.5000000000e-02 0.0000e+00 1.0000e+00
  1000022  1    1    2    0    0 +6.2620934236e+02 -1.4166844599e+02 -9.4239920191e+02 1.2944142615e+03 6.1252260000e+02 0.0000e+00 -1.0000e+00
  1000022  1    1    2    0    0 -6.0091100422e+02 +1.4731671330e+02 -1.1094106375e+03 1.4102383299e+03 6.1252260000e+02 0.0000e+00 -1.0000e+00
       21  1    1    2  502  501 -2.5298338137e+01 -5.6482673071e+00 -2.1569415704e+02 2.1724612360e+02 0.0000000000e+00 0.0000e+00 -1.0000e+00
<mgrwt>
<rscale>  1 0.87942776E+03</rscale>
<asrwt>0</asrwt>
<pdfrwt beam="2">  1        3 0.39918481E+00 0.87942776E+03</pdfrwt>
<pdfrwt beam="1">  1       -3 0.50338057E-01 0.87942776E+03</pdfrwt>
<totfact> 0.11667649E-01</totfact>
</mgrwt>
</event>
<event>
 5      1 +1.8937969e-08 8.37205100e+02 7.81665300e-03 9.50767300e-02
       -3 -1    0    0    0  501 -0.0000000000e+00 +0.0000000000e+00 +1.6588848323e+03 1.6588848350e+03 9.5000000000e-02 0.0000e+00 -1.0000e+00
        3 -1    0    0  502    0 +0.0000000000e+00 -0.0000000000e+00 -8.3349405021e+02 8.3349405563e+02 9.5000000000e-02 0.0000e+00 -1.0000e+00
  1000022  1    1    2    0    0 +5.3828352546e+02 -3.4898380891e+02 +1.6840091411e+02 9.0281872823e+02 6.1252260000e+02 0.0000e+00 1.0000e+00
  1000022  1    1    2    0    0 -4.9295485682e+02 +1.9051059917e+02 -9.9704393498e+01 8.1512188098e+02 6.1252260000e+02 0.0000e+00 1.0000e+00
       21  1    1    2  502  501 -4.5328668639e+01 +1.5847320974e+02 +7.5669426144e+02 7.7443828141e+02 0.0000000000e+00 0.0000e+00 1.0000e+00
<mgrwt>
<rscale>  1 0.83720514E+03</rscale>
<asrwt>0</asrwt>
<pdfrwt beam="2">  1        3 0.12822985E+00 0.83720514E+03</pdfrwt>
<pdfrwt beam="1">  1       -3 0.25521305E+00 0.83720514E+03</pdfrwt>
<totfact> 0.84851810E-02</totfact>
</mgrwt>
</event>
<event>
 5      1 +1.8937969e-08 1.66182800e+03 7.81665300e-03 8.78344000e-02
       -2 -1    0    0    0  501 -0.0000000000e+00 +0.0000000000e+00 +2.3228347910e+03 2.3228347910e+03 2.5000000000e-03 0.0000e+00 1.0000e+00
        2 -1    0    0  502    0 +0.0000000000e+00 -0.0000000000e+00 -1.4615133980e+03 1.4615133980e+03 2.5000000000e-03 0.0000e+00 -1.0000e+00
  1000022  1    1    2    0    0 -1.4790644159e+03 +5.0227392940e+02 -1.9421784236e+02 1.6890278720e+03 6.1252260000e+02 0.0000e+00 -1.0000e+00
  1000022  1    1    2    0    0 +1.4733267842e+03 -4.3846214324e+02 +1.1249122608e+03 2.0008879014e+03 6.1252260000e+02 0.0000e+00 1.0000e+00
       21  1    1    2  502  501 +5.7376316444e+00 -6.3811786151e+01 -6.9373025362e+01 9.4432415603e+01 0.0000000000e+00 0.0000e+00 1.0000e+00
<mgrwt>
<rscale>  1 0.16618276E+04</rscale>
<asrwt>0</asrwt>
<pdfrwt beam="2">  1        2 0.22484822E+00 0.16618276E+04</pdfrwt>
<pdfrwt beam="1">  1       -2 0.35735919E+00 0.16618276E+04</pdfrwt>
<totfact> 0.17276147E-01</totfact>
</mgrwt>
</event>
<event>
 5      1 +1.8937969e-08 8.20615400e+02 7.81665300e-03 9.53064700e-02
       -3 -1    0    0    0  501 -0.0000000000e+00 +0.0000000000e+00 +2.3937648247e+02 2.3937650132e+02 9.5000000000e-02 0.0000e+00 -1.0000e+00
        3 -1    0    0  502    0 +0.0000000000e+00 -0.0000000000e+00 -3.6519267409e+03 3.6519267422e+03 9.5000000000e-02 0.0000e+00 -1.0000e+00
  1000022  1    1    2    0    0 -1.2052045815e+02 -5.5421615226e+02 -9.2512388420e+02 1.2460814022e+03 6.1252260000e+02 0.0000e+00 1.0000e+00
  1000022  1    1    2    0    0 +1.2747796932e+02 +4.9020341202e+02 -1.9776087137e+03 2.1313540714e+03 6.1252260000e+02 0.0000e+00 1.0000e+00
       21  1    1    2  502  501 -6.9575111699e+00 +6.4012740240e+01 -5.0981766056e+02 5.1386776985e+02 0.0000000000e+00 0.0000e+00 1.0000e+00
<mgrwt>
<rscale>  1 0.82061537E+03</rscale>
<asrwt>0</asrwt>
<pdfrwt beam="2">  1        3 0.56183485E+00 0.82061537E+03</pdfrwt>
<pdfrwt beam="1">  1       -3 0.36827155E-01 0.82061537E+03</pdfrwt>
<totfact> 0.34335884E-02</totfact>
</mgrwt>
</event>
<event>
 5      1 +1.8937969e-08 7.66382600e+02 7.81665300e-03 9.60999400e-02
       -3 -1    0    0    0  501 -0.0000000000e+00 +0.0000000000e+00 +5.8810200214e+02 5.8810200982e+02 9.5000000000e-02 0.0000e+00 -1.0000e+00
        3 -1    0    0  502    0 +0.0000000000e+00 -0.0000000000e+00 -1.5682622149e+03 1.5682622178e+03 9.5000000000e-02 0.0000e+00 -1.0000e+00
  1000022  1    1    2    0    0 -3.7305851034e+02 +2.4016654171e+02 -9.9285810249e+02 1.2481200932e+03 6.1252260000e+02 0.0000e+00 1.0000e+00
  1000022  1    1    2    0    0 +4.0212837215e+02 -3.1589933037e+02 -5.8833123820e+01 8.0009054899e+02 6.1252260000e+02 0.0000e+00 1.0000e+00
       21  1    1    2  502  501 -2.9069861806e+01 +7.5732788659e+01 +7.1531013523e+01 1.0815358542e+02 0.0000000000e+00 0.0000e+00 -1.0000e+00
<mgrwt>
<rscale>  1 0.76638259E+03</rscale>
<asrwt>0</asrwt>
<pdfrwt beam="2">  1        3 0.24127111E+00 0.76638259E+03</pdfrwt>
<pdfrwt beam="1">  1       -3 0.90477233E-01 0.76638259E+03</pdfrwt>
<totfact> 0.23848579E-01</totfact>
</mgrwt>
</event>
<event>
 5      1 +1.8937969e-08 6.74014400e+02 7.81665300e-03 9.76273300e-02
       -3 -1    0    0    0  501 -0.0000000000e+00 +0.0000000000e+00 +9.4452343757e+02 9.4452344235e+02 9.5000000000e-02 0.0000e+00 1.0000e+00
       21 -1    0    0  501  502 +0.0000000000e+00 -0.0000000000e+00 -1.0550950251e+03 1.0550950251e+03 0.0000000000e+00 0.0000e+00 1.0000e+00
  1000022  1    1    2    0    0 -3.0671931954e+02 +1.3265154113e+02 -3.8571609773e+02 7.9726659023e+02 6.1252260000e+02 0.0000e+00 -1.0000e+00
  1000022  1    1    2    0    0 +2.6844481001e+02 -3.1594936173e+01 +5.7567994768e+02 8.8297915813e+02 6.1252260000e+02 0.0000e+00 -1.0000e+00
       -3  1    1    2    0  502 +3.8274509527e+01 -1.0105660495e+02 -3.0053543747e+02 3.1937271907e+02 9.5000000000e-02 0.0000e+00 -1.0000e+00
<mgrwt>
<rscale>  1 0.67401435E+03</rscale>
<asrwt>0</asrwt>
<pdfrwt beam="2">  1       21 0.16232231E+00 0.67401435E+03</pdfrwt>
<pdfrwt beam="1">  1       -3 0.14531130E+00 0.67401435E+03</pdfrwt>
<totfact> 0.36184794E+00</totfact>
</mgrwt>
</event>
<event>
 5      1 +1.8937969e-08 7.74004900e+02 7.81665300e-03 9.59842500e-02
        3 -1    0    0  502    0 +0.0000000000e+00 +0.0000000000e+00 +5.7640296021e+02 5.7640296804e+02 9.5000000000e-02 0.0000e+00 1.0000e+00
       -3 -1    0    0    0  501 -0.0000000000e+00 -0.0000000000e+00 -1.5825962454e+03 1.5825962483e+03 9.5000000000e-02 0.0000e+00 1.0000e+00
  1000022  1    1    2    0    0 -2.8752062808e+02 +3.2198571204e+02 -8.4384450773e+02 1.1285390552e+03 6.1252260000e+02 0.0000e+00 -1.0000e+00
  1000022  1    1    2    0    0 +3.5355826202e+02 -3.3724650860e+02 +7.1689701559e+01 7.8680493200e+02 6.1252260000e+02 0.0000e+00 -1.0000e+00
       21  1    1    2  502  501 -6.6037633936e+01 +1.5260796559e+01 -2.3403847906e+02 2.4365522914e+02 0.0000000000e+00 0.0000e+00 -1.0000e+00
<mgrwt>
<rscale>  1 0.77400485E+03</rscale>
<asrwt>0</asrwt>
<pdfrwt beam="1">  1        3 0.88677380E-01 0.77400485E+03</pdfrwt>
<pdfrwt beam="2">  1       -3 0.24347635E+00 0.77400485E+03</pdfrwt>
<totfact> 0.24033505E-01</totfact>
</mgrwt>
</event>
<event>
 5      1 +1.8937969e-08 7.35833200e+02 7.81665300e-03 9.65784200e-02
       -1 -1    0    0    0  501 -0.0000000000e+00 +0.0000000000e+00 +3.4537399295e+02 3.4537399298e+02 5.0000000000e-03 0.0000e+00 1.0000e+00
        1 -1    0    0  502    0 +0.0000000000e+00 -0.0000000000e+00 -1.9010641710e+03 1.9010641710e+03 5.0000000000e-03 0.0000e+00 -1.0000e+00
  1000022  1    1    2    0    0 +9.1565310143e+01 +3.7008335409e+02 -9.3183074086e+02 1.1784898642e+03 6.1252260000e+02 0.0000e+00 -1.0000e+00
  1000022  1    1    2    0    0 -5.0445113597e+01 -4.4560418413e+02 -6.2284735619e+02 9.8195242401e+02 6.1252260000e+02 0.0000e+00 1.0000e+00
       21  1    1    2  502  501 -4.1120196546e+01 +7.5520830043e+01 -1.0120809963e+00 8.5995875728e+01 0.0000000000e+00 0.0000e+00 1.0000e+00
<mgrwt>
<rscale>  1 0.73583318E+03</rscale>
<asrwt>0</asrwt>
<pdfrwt beam="2">  1        1 0.29247140E+00 0.73583318E+03</pdfrwt>
<pdfrwt beam="1">  1       -1 0.53134462E-01 0.73583318E+03</pdfrwt>
<totfact> 0.12982672E+01</totfact>
</mgrwt>
</event>
<event>
 5      1 +1.8937969e-08 7.59539100e+02 7.81665300e-03 9.62050300e-02
        3 -1    0    0  502    0 +0.0000000000e+00 +0.0000000000e+00 +1.0142521150e+03 1.0142521195e+03 9.5000000000e-02 0.0000e+00 -1.0000e+00
       -3 -1    0    0    0  501 -0.0000000000e+00 -0.0000000000e+00 -2.3365975183e+03 2.3365975202e+03 9.5000000000e-02 0.0000e+00 -1.0000e+00
  1000022  1    1    2    0    0 -1.0237766474e+02 +4.7416873906e+02 -3.0305924291e+02 8.3806086865e+02 6.1252260000e+02 0.0000e+00 1.0000e+00
  1000022  1    1    2    0    0 +1.4000903919e+02 -4.1491509351e+02 +5.5596839700e+02 9.3597107854e+02 6.1252260000e+02 0.0000e+00 1.0000e+00
       21  1    1    2  502  501 -3.7631374445e+01 -5.9253645549e+01 -1.5752545574e+03 1.5768176925e+03 0.0000000000e+00 0.0000e+00 -1.0000e+00
<mgrwt>
<rscale>  1 0.75953913E+03</rscale>
<asrwt>0</asrwt>
<pdfrwt beam="1">  1        3 0.15603879E+00 0.75953913E+03</pdfrwt>
<pdfrwt beam="2">  1       -3 0.35947654E+00 0.75953913E+03</pdfrwt>
<totfact> 0.13718222E-02</totfact>
</mgrwt>
</event>
<event>
 5      1 +1.8937969e-08 8.61913500e+02 7.81665300e-03 9.47448500e-02
       -3 -1    0    0    0  501 -0.0000000000e+00 +0.0000000000e+00 +7.1947815808e+02 7.1947816435e+02 9.5000000000e-02 0.0000e+00 -1.0000e+00
        3 -1    0    0  502    0 +0.0000000000e+00 -0.0000000000e+00 -1.4030174040e+03 1.4030174073e+03 9.5000000000e-02 0.0000e+00 -1.0000e+00
  1000022  1    1    2    0    0 +5.1243002110e+02 +2.1970175710e+01 -3.7279659651e+02 8.8160561082e+02 6.1252260000e+02 0.0000e+00 1.0000e+00
  1000022  1    1    2    0    0 -6.7688537583e+02 +4.2784110161e+00 -2.8694739835e+01 9.1334519237e+02 6.1252260000e+02 0.0000e+00 1.0000e+00
       21  1    1    2  502  501 +1.6445535473e+02 -2.6248586726e+01 -2.8204790961e+02 3.2754476842e+02 0.0000000000e+00 0.0000e+00 -1.0000e+00
<mgrwt>
<rscale>  1 0.86191347E+03</rscale>
<asrwt>0</asrwt>
<pdfrwt beam="2">  1        3 0.21584883E+00 0.86191347E+03</pdfrwt>
<pdfrwt beam="1">  1       -3 0.11068895E+00 0.86191347E+03</pdfrwt>
<totfact> 0.20788115E-01</totfact>
</mgrwt>
</event>
<event>
 5      1 +1.8937969e-08 8.11959300e+02 7.81665300e-03 9.54286600e-02
       -3 -1    0    0    0  501 -0.0000000000e+00 +0.0000000000e+00 +3.0575661697e+03 3.0575661712e+03 9.5000000000e-02 0.0000e+00 1.0000e+00
        3 -1    0    0  502    0 +0.0000000000e+00 -0.0000000000e+00 -3.9204110240e+02 3.9204111391e+02 9.5000000000e-02 0.0000e+00 1.0000e+00
  1000022  1    1    2    0    0 +3.2565162467e+02 -4.5928812491e+01 +1.4512310364e+03 1.6091655891e+03 6.1252260000e+02 0.0000e+00 -1.0000e+00
  1000022  1    1    2    0    0 -6.1950512850e+02 -1.3719059482e+02 +4.2592203083e+02 9.7938826591e+02 6.1252260000e+02 0.0000e+00 -1.0000e+00
       21  1    1    2  502  501 +2.9385350383e+02 +1.8311940731e+02 +7.8837200005e+02 8.6105343011e+02 0.0000000000e+00 0.0000e+00 1.0000e+00
<mgrwt>
<rscale>  1 0.81195926E+03</rscale>
<asrwt>0</asrwt>
<pdfrwt beam="2">  1        3 0.60314016E-01 0.81195926E+03</pdfrwt>
<pdfrwt beam="1">  1       -3 0.47039480E+00 0.81195926E+03</pdfrwt>
<totfact> 0.31580391E-02</totfact>
</mgrwt>
</event>
<event>
 5      1 +1.8937969e-08 8.55570300e+02 7.81665300e-03 9.48289100e-02
        3 -1    0    0  502    0 +0.0000000000e+00 +0.0000000000e+00 +1.5434001225e+03 1.5434001254e+03 9.5000000000e-02 0.0000e+00 1.0000e+00
       -3 -1    0    0    0  501 -0.0000000000e+00 -0.0000000000e+00 -5.0829886102e+02 5.0829886990e+02 9.5000000000e-02 0.0000e+00 1.0000e+00
  1000022  1    1    2    0    0 -4.9685266960e+02 -3.4363214961e+02 +5.0936944075e+02 9.9979337476e+02 6.1252260000e+02 0.0000e+00 -1.0000e+00
  1000022  1    1    2    0    0 +4.6955215033e+02 +3.5934226813e+02 +5.4876579133e+02 1.0128839602e+03 6.1252260000e+02 0.0000e+00 -1.0000e+00
       21  1    1    2  502  501 +2.7300519270e+01 -1.5710118515e+01 -2.3033970612e+01 3.9021660374e+01 0.0000000000e+00 0.0000e+00 -1.0000e+00
<mgrwt>
<rscale>  1 0.85557033E+03</rscale>
<asrwt>0</asrwt>
<pdfrwt beam="1">  1        3 0.23744617E+00 0.85557033E+03</pdfrwt>
<pdfrwt beam="2">  1       -3 0.78199826E-01 0.85557033E+03</pdfrwt>
<totfact> 0.34689143E-01</totfact>
</mgrwt>
</event>
<event>
 5      1 +1.8937969e-08 6.76202400e+02 7.81665300e-03 9.75881800e-02
        3 -1    0    0  502    0 +0.0000000000e+00 +0.0000000000e+00 +3.8025236031e+02 3.8025237218e+02 9.5000000000e-02 0.0000e+00 1.0000e+00
       -3 -1    0    0    0  501 -0.0000000000e+00 -0.0000000000e+00 -1.6694635028e+03 1.6694635055e+03 9.5000000000e-02 0.0000e+00 1.0000e+00
  1000022  1    1    2    0    0 +3.1135555553e+02 -3.4835091104e+00 -5.0292916291e+02 8.5151400177e+02 6.1252260000e+02 0.0000e+00 -1.0000e+00
  1000022  1    1    2    0    0 -2.7026490363e+02 -4.3181941866e+00 -8.7403470738e+02 1.1009915395e+03 6.1252260000e+02 0.0000e+00 -1.0000e+00
       21  1    1    2  502  501 -4.1090651905e+01 +7.8017032970e+00 +8.7752727835e+01 9.7210336337e+01 0.0000000000e+00 0.0000e+00 1.0000e+00
<mgrwt>
<rscale>  1 0.67620236E+03</rscale>
<asrwt>0</asrwt>
<pdfrwt beam="1">  1        3 0.58500365E-01 0.67620236E+03</pdfrwt>
<pdfrwt beam="2">  1       -3 0.25684054E+00 0.67620236E+03</pdfrwt>
<totfact> 0.50659777E-01</totfact>
</mgrwt>
</event>
<event>
 5      1 +1.8937969e-08 7.77002100e+02 7.81665300e-03 9.59391500e-02
        2 -1    0    0  502    0 -0.0000000000e+00 +0.0000000000e+00 +1.2739046204e+03 1.2739046204e+03 2.5000000000e-03 0.0000e+00 -1.0000e+00
       21 -1    0    0  501  502 +0.0000000000e+00 -0.0000000000e+00 -6.8081170756e+02 6.8081170756e+02 0.0000000000e+00 0.0000e+00 1.0000e+00
  1000022  1    1    2    0    0 -1.1183689075e+02 +4.6149553275e+02 +7.5373886129e+02 1.0811067586e+03 6.1252260000e+02 0.0000e+00 -1.0000e+00
  1000022  1    1    2    0    0 +1.5281959415e+02 -4.6323110317e+02 -8.5081106251e+01 7.8762910907e+02 6.1252260000e+02 0.0000e+00 1.0000e+00
        2  1    1    2  501    0 -4.0982703403e+01 +1.7355704155e+00 -7.5564842174e+01 8.5980460349e+01 2.5000000000e-03 0.0000e+00 -1.0000e+00
<mgrwt>
<rscale>  1 0.77700215E+03</rscale>
<asrwt>0</asrwt>
<pdfrwt beam="2">  1       21 0.10474026E+00 0.77700215E+03</pdfrwt>
<pdfrwt beam="1">  1        2 0.19598533E+00 0.77700215E+03</pdfrwt>
<totfact> 0.13556890E+02</totfact>
</mgrwt>
</event>
<event>
 5      1 +1.8937969e-08 6.19057300e+02 7.81665300e-03 9.86663800e-02
        3 -1    0    0  502    0 +0.0000000000e+00 +0.0000000000e+00 +9.1148849486e+02 9.1148849981e+02 9.5000000000e-02 0.0000e+00 1.0000e+00
       -3 -1    0    0    0  501 -0.0000000000e+00 -0.0000000000e+00 -9.1623927525e+02 9.1623928018e+02 9.5000000000e-02 0.0000e+00 1.0000e+00
  1000022  1    1    2    0    0 -3.5197184842e+01 -8.0257430983e+01 +6.4810952794e+02 8.9605244979e+02 6.1252260000e+02 0.0000e+00 -1.0000e+00
  1000022  1    1    2    0    0 +1.1652749033e+01 +1.0606630308e+02 -6.4498130215e+02 8.9586308264e+02 6.1252260000e+02 0.0000e+00 -1.0000e+00
       21  1    1    2  502  501 +2.3544435809e+01 -2.5808872099e+01 -7.8790061866e+00 3.5812247557e+01 0.0000000000e+00 0.0000e+00 1.0000e+00
<mgrwt>
<rscale>  1 0.61905732E+03</rscale>
<asrwt>0</asrwt>
<pdfrwt beam="1">  1        3 0.14022900E+00 0.61905732E+03</pdfrwt>
<pdfrwt beam="2">  1       -3 0.14095989E+00 0.61905732E+03</pdfrwt>
<totfact> 0.38010407E-01</totfact>
</mgrwt>
</event>
<event>
 5      1 +1.8937969e-08 6.78154900e+02 7.81665300e-03 9.75533700e-02
        1 -1    0    0  502    0 -0.0000000000e+00 +0.0000000000e+00 +7.6664170224e+02 7.6664170226e+02 5.0000000000e-03 0.0000e+00 -1.0000e+00
       21 -1    0    0  501  502 +0.0000000000e+00 -0.0000000000e+00 -9.4225743766e+02 9.4225743766e+02 0.0000000000e+00 0.0000e+00 1.0000e+00
  1000022  1    1    2    0    0 +2.1806897534e+02 +3.0171242592e+02 +1.1999838118e+02 7.2675168590e+02 6.1252260000e+02 0.0000e+00 1.0000e+00
  1000022  1    1    2    0    0 -2.1099764483e+02 -2.4740012269e+01 -2.7527820891e+02 7.0433947933e+02 6.1252260000e+02 0.0000e+00 -1.0000e+00
        1  1    1    2  501    0 -7.0713305087e+00 -2.7697241365e+02 -2.0335907687e+01 2.7780797469e+02 5.0000000000e-03 0.0000e+00 -1.0000e+00
<mgrwt>
<rscale>  1 0.67815493E+03</rscale>
<asrwt>0</asrwt>
<pdfrwt beam="2">  1       21 0.14496268E+00 0.67815493E+03</pdfrwt>
<pdfrwt beam="1">  1        1 0.11794488E+00 0.67815493E+03</pdfrwt>
<totfact> 0.72119521E+01</totfact>
</mgrwt>
</event>
<event>
 5      1 +1.8937969e-08 8.25281700e+02 7.81665300e-03 9.52412700e-02
        3 -1    0    0  502    0 -0.0000000000e+00 +0.0000000000e+00 +1.6232424942e+03 1.6232424969e+03 9.5000000000e-02 0.0000e+00 -1.0000e+00
       21 -1    0    0  501  502 +0.0000000000e+00 -0.0000000000e+00 -7.7666987638e+02 7.7666987638e+02 0.0000000000e+00 0.0000e+00 1.0000e+00
  1000022  1    1    2    0    0 +5.0403953513e+02 +2.7479310010e+02 +3.1140443896e+02 8.9539028415e+02 6.1252260000e+02 0.0000e+00 1.0000e+00
  1000022  1    1    2    0    0 -4.8552973307e+02 -2.3966926726e+02 +8.5457873448e+02 1.1826534692e+03 6.1252260000e+02 0.0000e+00 1.0000e+00
        3  1    1    2  501    0 -1.8509802065e+01 -3.5123832831e+01 -3.1941055566e+02 3.2186861994e+02 9.5000000000e-02 0.0000e+00 1.0000e+00
<mgrwt>
<rscale>  1 0.82528171E+03</rscale>
<asrwt>0</asrwt>
<pdfrwt beam="2">  1       21 0.11948767E+00 0.82528171E+03</pdfrwt>
<pdfrwt beam="1">  1        3 0.24972962E+00 0.82528171E+03</pdfrwt>
<totfact> 0.17091121E+00</totfact>
</mgrwt>
</event>
<event>
 5      1 +1.8937969e-08 8.32529600e+02 7.81665300e-03 9.51409000e-02
        3 -1    0    0  502    0 +0.0000000000e+00 +0.0000000000e+00 +1.2448902095e+03 1.2448902131e+03 9.5000000000e-02 0.0000e+00 -1.0000e+00
       -3 -1    0    0    0  501 -0.0000000000e+00 -0.0000000000e+00 -9.1281052230e+02 9.1281052725e+02 9.5000000000e-02 0.0000e+00 -1.0000e+00
  1000022  1    1    2    0    0 +5.0617429606e+02 -2.4391701301e+02 +5.0195620308e+02 9.7100560892e+02 6.1252260000e+02 0.0000e+00 1.0000e+00
  1000022  1    1    2    0    0 -6.0956463552e+02 -1.2725954144e+01 -4.3057743929e+00 8.6425312842e+02 6.1252260000e+02 0.0000e+00 1.0000e+00
       21  1    1    2  502  501 +1.0339033946e+02 +2.5664296716e+02 -1.6557074149e+02 3.2244200304e+02 0.0000000000e+00 0.0000e+00 -1.0000e+00
<mgrwt>
<rscale>  1 0.83252962E+03</rscale>
<asrwt>0</asrwt>
<pdfrwt beam="1">  1        3 0.19152157E+00 0.83252962E+03</pdfrwt>
<pdfrwt beam="2">  1       -3 0.14043239E+00 0.83252962E+03</pdfrwt>
<totfact> 0.16389769E-01</totfact>
</mgrwt>
</event>
<event>
 5      1 +1.8937969e-08 1.01388400e+03 7.81665300e-03 9.29344700e-02
       -2 -1    0    0    0  501 -0.0000000000e+00 +0.0000000000e+00 +8.9286063102e+02 8.9286063103e+02 2.5000000000e-03 0.0000e+00 1.0000e+00
        2 -1    0    0  502    0 +0.0000000000e+00 -0.0000000000e+00 -2.4528878574e+03 2.4528878574e+03 2.5000000000e-03 0.0000e+00 -1.0000e+00
  1000022  1    1    2    0    0 -1.7233912106e+02 -7.8765958929e+02 -1.9489790789e+03 2.1963177791e+03 6.1252260000e+02 0.0000e+00 -1.0000e+00
  1000022  1    1    2    0    0 +1.3946464714e+02 +8.0593444220e+02 +3.1981056005e+02 1.0707209920e+03 6.1252260000e+02 0.0000e+00 1.0000e+00
       21  1    1    2  502  501 +3.2874473919e+01 -1.8274852910e+01 +6.9141292443e+01 7.8709717348e+01 0.0000000000e+00 0.0000e+00 -1.0000e+00
<mgrwt>
<rscale>  1 0.10138841E+04</rscale>
<asrwt>0</asrwt>
<pdfrwt beam="2">  1        2 0.37736736E+00 0.10138841E+04</pdfrwt>
<pdfrwt beam="1">  1       -2 0.13736317E+00 0.10138841E+04</pdfrwt>
<totfact> 0.14030599E+00</totfact>
</mgrwt>
</event>
<event>
 5      1 +1.8937969e-08 7.58066700e+02 7.81665300e-03 9.62277900e-02
        3 -1    0    0  502    0 +0.0000000000e+00 +0.0000000000e+00 +3.2010345187e+02 3.2010346597e+02 9.5000000000e-02 0.0000e+00 -1.0000e+00
       -3 -1    0    0    0  501 -0.0000000000e+00 -0.0000000000e+00 -2.3062064275e+03 2.3062064294e+03 9.5000000000e-02 0.0000e+00 -1.0000e+00
  1000022  1    1    2    0    0 -3.0036660837e+02 +3.2770572195e+02 -1.5448390843e+03 1.7202682557e+03 6.1252260000e+02 0.0000e+00 1.0000e+00
  1000022  1    1    2    0    0 +2.8676776607e+02 -3.4986624165e+02 -4.4118752894e+02 8.8004119785e+02 6.1252260000e+02 0.0000e+00 1.0000e+00
       21  1    1    2  502  501 +1.3598842306e+01 +2.2160519701e+01 -7.6362344981e-02 2.6000441856e+01 0.0000000000e+00 0.0000e+00 1.0000e+00
<mgrwt>
<rscale>  1 0.75806668E+03</rscale>
<asrwt>0</asrwt>
<pdfrwt beam="1">  1        3 0.49246687E-01 0.75806668E+03</pdfrwt>
<pdfrwt beam="2">  1       -3 0.35480098E+00 0.75806668E+03</pdfrwt>
<totfact> 0.20649813E-01</totfact>
</mgrwt>
</event>
<event>
 5      1 +1.8937969e-08 6.68200200e+02 7.81665300e-03 9.77321500e-02
        2 -1    0    0  502    0 +0.0000000000e+00 +0.0000000000e+00 +7.7353671062e+02 7.7353671062e+02 2.5000000000e-03 0.0000e+00 1.0000e+00
       -2 -1    0    0    0  501 -0.0000000000e+00 -0.0000000000e+00 -8.9499491293e+02 8.9499491293e+02 2.5000000000e-03 0.0000e+00 -1.0000e+00
  1000022  1    1    2    0    0 -1.9435861017e+02 -2.0331992864e+02 -1.4525705119e+02 6.8949097830e+02 6.1252260000e+02 0.0000e+00 -1.0000e+00
  1000022  1    1    2    0    0 +1.7585836622e+02 +1.9084723390e+02 +2.8008167129e+02 7.2178841066e+02 6.1252260000e+02 0.0000e+00 1.0000e+00
       21  1    1    2  502  501 +1.8500243945e+01 +1.2472694739e+01 -2.5628282241e+02 2.5725223459e+02 0.0000000000e+00 0.0000e+00 -1.0000e+00
<mgrwt>
<rscale>  1 0.66820015E+03</rscale>
<asrwt>0</asrwt>
<pdfrwt beam="1">  1        2 0.11900565E+00 0.66820015E+03</pdfrwt>
<pdfrwt beam="2">  1       -2 0.13769153E+00 0.66820015E+03</pdfrwt>
<totfact> 0.13835174E+01</totfact>
</mgrwt>
</event>
<event>
 5      1 +1.8937969e-08 8.74941000e+02 7.81665300e-03 9.45746000e-02
       -3 -1    0    0    0  501 -0.0000000000e+00 +0.0000000000e+00 +6.4184625704e+02 6.4184626407e+02 9.5000000000e-02 0.0000e+00 -1.0000e+00
        3 -1    0    0  502    0 +0.0000000000e+00 -0.0000000000e+00 -1.2754020091e+03 1.2754020127e+03 9.5000000000e-02 0.0000e+00 -1.0000e+00
  1000022  1    1    2    0    0 +3.9841695032e+02 -4.5116925482e+02 -2.8879777751e+02 9.0602309827e+02 6.1252260000e+02 0.0000e+00 1.0000e+00
  1000022  1    1    2    0    0 -4.2438888706e+02 +4.8831611115e+02 -3.6343870152e+02 9.6220069484e+02 6.1252260000e+02 0.0000e+00 1.0000e+00
       21  1    1    2  502  501 +2.5971936745e+01 -3.7146856334e+01 +1.8680726954e+01 4.9024483611e+01 0.0000000000e+00 0.0000e+00 -1.0000e+00
<mgrwt>
<rscale>  1 0.87494102E+03</rscale>
<asrwt>0</asrwt>
<pdfrwt beam="2">  1        3 0.19621569E+00 0.87494102E+03</pdfrwt>
<pdfrwt beam="1">  1       -3 0.98745579E-01 0.87494102E+03</pdfrwt>
<totfact> 0.36086557E-01</totfact>
</mgrwt>
</event>
<event>
 5      1 +1.8937969e-08 1.12169100e+03 7.81665300e-03 9.18430500e-02
       -2 -1    0    0    0  501 -0.0000000000e+00 +0.0000000000e+00 +8.5957470537e+02 8.5957470537e+02 2.5000000000e-03 0.0000e+00 1.0000e+00
        2 -1    0    0  502    0 +0.0000000000e+00 -0.0000000000e+00 -2.3214502046e+03 2.3214502046e+03 2.5000000000e-03 0.0000e+00 -1.0000e+00
  1000022  1    1    2    0    0 +2.5969838262e+02 -8.9863409899e+02 +1.5204018344e+02 1.1284000384e+03 6.1252260000e+02 0.0000e+00 1.0000e+00
  1000022  1    1    2    0    0 -2.7616616444e+02 +9.1165425415e+02 -1.2446818246e+03 1.6827947021e+03 6.1252260000e+02 0.0000e+00 -1.0000e+00
       21  1    1    2  502  501 +1.6467781818e+01 -1.3020155163e+01 -3.6923385808e+02 3.6983016944e+02 0.0000000000e+00 0.0000e+00 -1.0000e+00
<mgrwt>
<rscale>  1 0.11216906E+04</rscale>
<asrwt>0</asrwt>
<pdfrwt beam="2">  1        2 0.35714618E+00 0.11216906E+04</pdfrwt>
<pdfrwt beam="1">  1       -2 0.13224226E+00 0.11216906E+04</pdfrwt>
<totfact> 0.18090718E+00</totfact>
</mgrwt>
</event>
<event>
 5      1 +1.8937969e-08 7.05311100e+02 7.81665300e-03 9.70819200e-02
       -1 -1    0    0    0  501 -0.0000000000e+00 +0.0000000000e+00 +2.7409732199e+02 2.7409732203e+02 5.0000000000e-03 0.0000e+00 1.0000e+00
        1 -1    0    0  502    0 +0.0000000000e+00 -0.0000000000e+00 -2.5922927870e+03 2.5922927870e+03 5.0000000000e-03 0.0000e+00 -1.0000e+00
  1000022  1    1    2    0    0 +1.0141856566e+02 -3.3234760162e+02 -4.5516619311e+02 8.3851109273e+02 6.1252260000e+02 0.0000e+00 1.0000e+00
  1000022  1    1    2    0    0 -3.2325421964e+01 +3.5915797137e+02 -1.5349980514e+03 1.6915798340e+03 6.1252260000e+02 0.0000e+00 -1.0000e+00
       21  1    1    2  502  501 -6.9093143693e+01 -2.6810369745e+01 -3.2803122044e+02 3.3629918230e+02 0.0000000000e+00 0.0000e+00 -1.0000e+00
<mgrwt>
<rscale>  1 0.70531111E+03</rscale>
<asrwt>0</asrwt>
<pdfrwt beam="2">  1        1 0.39881426E+00 0.70531111E+03</pdfrwt>
<pdfrwt beam="1">  1       -1 0.42168820E-01 0.70531111E+03</pdfrwt>
<totfact> 0.68860092E+00</totfact>
</mgrwt>
</event>
<event>
 5      1 +1.8937969e-08 6.36495500e+02 7.81665300e-03 9.83245500e-02
       21 -1    0    0  501  502 +0.0000000000e+00 +0.0000000000e+00 +2.1941915327e+03 2.1941915327e+03 0.0000000000e+00 0.0000e+00 1.0000e+00
       -3 -1    0    0    0  501 -0.0000000000e+00 -0.0000000000e+00 -4.5376116846e+02 4.5376117840e+02 9.5000000000e-02 0.0000e+00 1.0000e+00
  1000022  1    1    2    0    0 +2.9903568698e+01 -2.0285103200e+02 +1.4007921657e+03 1.5425451020e+03 6.1252260000e+02 0.0000e+00 -1.0000e+00
  1000022  1    1    2    0    0 +2.3529252308e+01 +1.6686209733e+02 -1.1553305104e+02 6.4569993544e+02 6.1252260000e+02 0.0000e+00 -1.0000e+00
       -3  1    1    2    0  502 -5.3432821006e+01 +3.5988934673e+01 +4.5517124955e+02 4.5970767366e+02 9.5000000000e-02 0.0000e+00 -1.0000e+00
<mgrwt>
<rscale>  1 0.63649555E+03</rscale>
<asrwt>0</asrwt>
<pdfrwt beam="1">  1       21 0.33756792E+00 0.63649555E+03</pdfrwt>
<pdfrwt beam="2">  1       -3 0.69809412E-01 0.63649555E+03</pdfrwt>
<totfact> 0.15236865E+00</totfact>
</mgrwt>
</event>
<event>
 5      1 +1.8937969e-08 8.38619800e+02 7.81665300e-03 9.50574000e-02
        3 -1    0    0  502    0 -0.0000000000e+00 +0.0000000000e+00 +1.8204004379e+03 1.8204004404e+03 9.5000000000e-02 0.0000e+00 -1.0000e+00
       21 -1    0    0  501  502 +0.0000000000e+00 -0.0000000000e+00 -9.3664054333e+02 9.3664054333e+02 0.0000000000e+00 0.0000e+00 1.0000e+00
  1000022  1    1    2    0    0 +5.0481729479e+02 -2.9174203111e+02 +3.8102917910e+02 9.2753495065e+02 6.1252260000e+02 0.0000e+00 1.0000e+00
  1000022  1    1    2    0    0 -3.7221324705e+02 +4.4458376231e+02 +9.9078523730e+02 1.3011674546e+03 6.1252260000e+02 0.0000e+00 1.0000e+00
        3  1    1    2  501    0 -1.3260404774e+02 -1.5284173120e+02 -4.8805452177e+02 5.2833857849e+02 9.5000000000e-02 0.0000e+00 1.0000e+00
<mgrwt>
<rscale>  1 0.83861981E+03</rscale>
<asrwt>0</asrwt>
<pdfrwt beam="2">  1       21 0.14409855E+00 0.83861981E+03</pdfrwt>
<pdfrwt beam="1">  1        3 0.28006161E+00 0.83861981E+03</pdfrwt>
<totfact> 0.70011614E-01</totfact>
</mgrwt>
</event>
<event>
 5      1 +1.8937969e-08 8.57364200e+02 7.81665300e-03 9.48050600e-02
        3 -1    0    0  502    0 +0.0000000000e+00 +0.0000000000e+00 +6.9930414912e+02 6.9930415558e+02 9.5000000000e-02 0.0000e+00 -1.0000e+00
       -3 -1    0    0    0  501 -0.0000000000e+00 -0.0000000000e+00 -1.4586546836e+03 1.4586546867e+03 9.5000000000e-02 0.0000e+00 -1.0000e+00
  1000022  1    1    2    0    0 -5.4761555046e+02 +1.7130339287e+02 -5.0653439256e+02 9.8030029576e+02 6.1252260000e+02 0.0000e+00 1.0000e+00
  1000022  1    1    2    0    0 +5.5333316452e+02 -3.2128074405e+02 -3.9597332357e+02 9.7024621409e+02 6.1252260000e+02 0.0000e+00 1.0000e+00
       21  1    1    2  502  501 -5.7176140617e+00 +1.4997735118e+02 +1.4315718165e+02 2.0741233241e+02 0.0000000000e+00 0.0000e+00 -1.0000e+00
<mgrwt>
<rscale>  1 0.85736417E+03</rscale>
<asrwt>0</asrwt>
<pdfrwt beam="1">  1        3 0.10758525E+00 0.85736417E+03</pdfrwt>
<pdfrwt beam="2">  1       -3 0.22440841E+00 0.85736417E+03</pdfrwt>
<totfact> 0.19659233E-01</totfact>
</mgrwt>
</event>
<event>
 5      1 +1.8937969e-08 6.21494800e+02 7.81665300e-03 9.86178800e-02
       -1 -1    0    0    0  501 -0.0000000000e+00 +0.0000000000e+00 +4.2886602695e+02 4.2886602698e+02 5.0000000000e-03 0.0000e+00 1.0000e+00
        1 -1    0    0  502    0 +0.0000000000e+00 -0.0000000000e+00 -1.2931786529e+03 1.2931786529e+03 5.0000000000e-03 0.0000e+00 -1.0000e+00
  1000022  1    1    2    0    0 -9.5748235186e+01 -7.8667938331e+01 -8.0755514604e+02 1.0211197865e+03 6.1252260000e+02 0.0000e+00 -1.0000e+00
  1000022  1    1    2    0    0 +2.4027596955e+01 +5.2845917547e+01 -1.8285169152e+01 6.1553903153e+02 6.1252260000e+02 0.0000e+00 1.0000e+00
       21  1    1    2  502  501 +7.1720638231e+01 +2.5822020784e+01 -3.8472310796e+01 8.5385861848e+01 0.0000000000e+00 0.0000e+00 1.0000e+00
<mgrwt>
<rscale>  1 0.62149482E+03</rscale>
<asrwt>0</asrwt>
<pdfrwt beam="2">  1        1 0.19895056E+00 0.62149482E+03</pdfrwt>
<pdfrwt beam="1">  1       -1 0.65979389E-01 0.62149482E+03</pdfrwt>
<totfact> 0.22364566E+01</totfact>
</mgrwt>
</event>
<event>
 5      1 +1.8937969e-08 6.46191500e+02 7.81665300e-03 9.81395200e-02
        1 -1    0    0  502    0 +0.0000000000e+00 +0.0000000000e+00 +2.1072931566e+03 2.1072931566e+03 5.0000000000e-03 0.0000e+00 -1.0000e+00
       -1 -1    0    0    0  501 -0.0000000000e+00 -0.0000000000e+00 -5.1256989282e+02 5.1256989284e+02 5.0000000000e-03 0.0000e+00 1.0000e+00
  1000022  1    1    2    0    0 -8.1169228201e+01 -1.3624781287e+02 -9.5053484164e+01 6.3982107693e+02 6.1252260000e+02 0.0000e+00 1.0000e+00
  1000022  1    1    2    0    0 +1.7242972197e+02 +3.3670365848e+02 +8.6011766643e+02 1.1216450857e+03 6.1252260000e+02 0.0000e+00 -1.0000e+00
       21  1    1    2  502  501 -9.1260493770e+01 -2.0045584561e+02 +8.2965908156e+02 8.5839688686e+02 0.0000000000e+00 0.0000e+00 1.0000e+00
<mgrwt>
<rscale>  1 0.64619148E+03</rscale>
<asrwt>0</asrwt>
<pdfrwt beam="1">  1        1 0.32419894E+00 0.64619148E+03</pdfrwt>
<pdfrwt beam="2">  1       -1 0.78856907E-01 0.64619148E+03</pdfrwt>
<totfact> 0.43529129E+00</totfact>
</mgrwt>
</event>
<event>
 5      1 +1.8937969e-08 6.19343300e+02 7.81665300e-03 9.86606800e-02
        2 -1    0    0  502    0 -0.0000000000e+00 +0.0000000000e+00 +1.1876579701e+03 1.1876579701e+03 2.5000000000e-03 0.0000e+00 -1.0000e+00
       21 -1    0    0  501  502 +0.0000000000e+00 -0.0000000000e+00 -8.3763520831e+02 8.3763520831e+02 0.0000000000e+00 0.0000e+00 1.0000e+00
  1000022  1    1    2    0    0 -7.7503162696e+01 -1.1137302728e+02 +1.0639295449e+02 6.3632860042e+02 6.1252260000e+02 0.0000e+00 1.0000e+00
  1000022  1    1    2    0    0 +3.1802824231e+01 -2.8521594328e+01 -3.9731097091e+02 7.3134454540e+02 6.1252260000e+02 0.0000e+00 1.0000e+00
        2  1    1    2  501    0 +4.5700338465e+01 +1.3989462161e+02 +6.4094077823e+02 6.5762003261e+02 2.5000000000e-03 0.0000e+00 -1.0000e+00
<mgrwt>
<rscale>  1 0.61934331E+03</rscale>
<asrwt>0</asrwt>
<pdfrwt beam="2">  1       21 0.12886695E+00 0.61934331E+03</pdfrwt>
<pdfrwt beam="1">  1        2 0.18271661E+00 0.61934331E+03</pdfrwt>
<totfact> 0.93164130E+01</totfact>
</mgrwt>
</event>
<event>
 5      1 +1.8937969e-08 7.48638800e+02 7.81665300e-03 9.63748800e-02
       -2 -1    0    0    0  501 -0.0000000000e+00 +0.0000000000e+00 +9.1228421318e+02 9.1228421318e+02 2.5000000000e-03 0.0000e+00 1.0000e+00
        2 -1    0    0  502    0 +0.0000000000e+00 -0.0000000000e+00 -7.4333052581e+02 7.4333052582e+02 2.5000000000e-03 0.0000e+00 -1.0000e+00
  1000022  1    1    2    0    0 +3.8149696165e+02 +2.1661809477e+02 +3.9169488997e+02 8.4915967466e+02 6.1252260000e+02 0.0000e+00 1.0000e+00
  1000022  1    1    2    0    0 -3.4786235174e+02 -2.2333617720e+02 -2.0088601750e+02 7.6578482052e+02 6.1252260000e+02 0.0000e+00 -1.0000e+00
       21  1    1    2  502  501 -3.3634609912e+01 +6.7180824299e+00 -2.1855185114e+01 4.0670243814e+01 0.0000000000e+00 0.0000e+00 1.0000e+00
<mgrwt>
<rscale>  1 0.74863879E+03</rscale>
<asrwt>0</asrwt>
<pdfrwt beam="2">  1        2 0.11435854E+00 0.74863879E+03</pdfrwt>
<pdfrwt beam="1">  1       -2 0.14035142E+00 0.74863879E+03</pdfrwt>
<totfact> 0.13742081E+01</totfact>
</mgrwt>
</event>
<event>
 5      1 +1.8937969e-08 6.31058400e+02 7.81665300e-03 9.84298600e-02
        3 -1    0    0  502    0 -0.0000000000e+00 +0.0000000000e+00 +1.6525256657e+03 1.6525256684e+03 9.5000000000e-02 0.0000e+00 -1.0000e+00
       21 -1    0    0  501  502 +0.0000000000e+00 -0.0000000000e+00 -4.8326946542e+02 4.8326946542e+02 0.0000000000e+00 0.0000e+00 1.0000e+00
  1000022  1    1    2    0    0 -1.1383998168e+02 -9.3123544102e+01 +1.2365064713e+03 1.3877188926e+03 6.1252260000e+02 0.0000e+00 -1.0000e+00
  1000022  1    1    2    0    0 +1.5929246714e+02 +7.3114721228e+01 +3.1136545257e+01 6.3786618699e+02 6.1252260000e+02 0.0000e+00 1.0000e+00
        3  1    1    2  501    0 -4.5452485453e+01 +2.0008822874e+01 -9.8386816231e+01 1.1021005426e+02 9.5000000000e-02 0.0000e+00 -1.0000e+00
<mgrwt>
<rscale>  1 0.63105844E+03</rscale>
<asrwt>0</asrwt>
<pdfrwt beam="2">  1       21 0.74349149E-01 0.63105844E+03</pdfrwt>
<pdfrwt beam="1">  1        3 0.25423472E+00 0.63105844E+03</pdfrwt>
<totfact> 0.53186940E+00</totfact>
</mgrwt>
</event>
<event>
 5      1 +1.8937969e-08 9.03253800e+02 7.81665300e-03 9.42152300e-02
       -3 -1    0    0    0  501 -0.0000000000e+00 +0.0000000000e+00 +7.4882657332e+02 7.4882657935e+02 9.5000000000e-02 0.0000e+00 1.0000e+00
        3 -1    0    0  502    0 +0.0000000000e+00 -0.0000000000e+00 -1.2528881464e+03 1.2528881500e+03 9.5000000000e-02 0.0000e+00 1.0000e+00
  1000022  1    1    2    0    0 -6.2572228234e+02 +3.8868982305e+01 -3.6041876724e+02 9.4769446326e+02 6.1252260000e+02 0.0000e+00 -1.0000e+00
  1000022  1    1    2    0    0 +7.1259457028e+02 -1.8841070090e+01 -1.8140209937e+02 9.5720252020e+02 6.1252260000e+02 0.0000e+00 -1.0000e+00
       21  1    1    2  502  501 -8.6872287933e+01 -2.0027912215e+01 +3.7759293506e+01 9.6817745917e+01 0.0000000000e+00 0.0000e+00 1.0000e+00
<mgrwt>
<rscale>  1 0.90325381E+03</rscale>
<asrwt>0</asrwt>
<pdfrwt beam="2">  1        3 0.19275202E+00 0.90325381E+03</pdfrwt>
<pdfrwt beam="1">  1       -3 0.11520409E+00 0.90325381E+03</pdfrwt>
<totfact> 0.26215565E-01</totfact>
</mgrwt>
</event>
<event>
 5      1 +1.8937969e-08 6.45733100e+02 7.81665300e-03 9.81481900e-02
        2 -1    0    0  502    0 -0.0000000000e+00 +0.0000000000e+00 +1.0530331528e+03 1.0530331528e+03 2.5000000000e-03 0.0000e+00 1.0000e+00
       21 -1    0    0  501  502 +0.0000000000e+00 -0.0000000000e+00 -6.3330868848e+02 6.3330868848e+02 0.0000000000e+00 0.0000e+00 -1.0000e+00
  1000022  1    1    2    0    0 -2.4255716486e+02 +1.2681274431e+00 +1.3519773825e+02 6.7253100323e+02 6.1252260000e+02 0.0000e+00 -1.0000e+00
  1000022  1    1    2    0    0 +1.7631810263e+02 -5.8243129114e+01 +4.7977495566e+02 7.9990516875e+02 6.1252260000e+02 0.0000e+00 1.0000e+00
        2  1    1    2  501    0 +6.6239062230e+01 +5.6975001671e+01 -1.9524822961e+02 2.1390566928e+02 2.5000000000e-03 0.0000e+00 1.0000e+00
<mgrwt>
<rscale>  1 0.64573308E+03</rscale>
<asrwt>0</asrwt>
<pdfrwt beam="2">  1       21 0.97432106E-01 0.64573308E+03</pdfrwt>
<pdfrwt beam="1">  1        2 0.16200510E+00 0.64573308E+03</pdfrwt>
<totfact> 0.22591001E+02</totfact>
</mgrwt>
</event>
<event>
 5      1 +1.8937969e-08 7.28410200e+02 7.81665300e-03 9.66984400e-02
       -2 -1    0    0    0  501 -0.0000000000e+00 +0.0000000000e+00 +3.4971547771e+02 3.4971547772e+02 2.5000000000e-03 0.0000e+00 1.0000e+00
        2 -1    0    0  502    0 +0.0000000000e+00 -0.0000000000e+00 -1.9839255548e+03 1.9839255548e+03 2.5000000000e-03 0.0000e+00 -1.0000e+00
  1000022  1    1    2    0    0 +2.1024981396e+02 +3.3252329712e+02 -3.0842316955e+02 7.9062349726e+02 6.1252260000e+02 0.0000e+00 -1.0000e+00
  1000022  1    1    2    0    0 -2.4966907022e+02 -3.0649836987e+02 -1.2966019369e+03 1.4874933323e+03 6.1252260000e+02 0.0000e+00 1.0000e+00
       21  1    1    2  502  501 +3.9419256263e+01 -2.6024927246e+01 -2.9184970606e+01 5.5524202937e+01 0.0000000000e+00 0.0000e+00 1.0000e+00
<mgrwt>
<rscale>  1 0.72841015E+03</rscale>
<asrwt>0</asrwt>
<pdfrwt beam="2">  1        2 0.30521931E+00 0.72841015E+03</pdfrwt>
<pdfrwt beam="1">  1       -2 0.53802382E-01 0.72841015E+03</pdfrwt>
<totfact> 0.23001497E+01</totfact>
</mgrwt>
</event>
<event>
 5      1 +1.8937969e-08 7.36360900e+02 7.81665300e-03 9.65699400e-02
       -2 -1    0    0    0  501 -0.0000000000e+00 +0.0000000000e+00 +1.2299940312e+03 1.2299940312e+03 2.5000000000e-03 0.0000e+00 1.0000e+00
        2 -1    0    0  502    0 +0.0000000000e+00 -0.0000000000e+00 -1.0824594412e+03 1.0824594412e+03 2.5000000000e-03 0.0000e+00 -1.0000e+00
  1000022  1    1    2    0    0 +4.2765966193e+02 -2.7295493379e+01 +8.7710478257e+02 1.1524472073e+03 6.1252260000e+02 0.0000e+00 1.0000e+00
  1000022  1    1    2    0    0 -2.7960440173e+02 +1.4552827382e+02 -6.7108175167e+02 9.6171292644e+02 6.1252260000e+02 0.0000e+00 -1.0000e+00
       21  1    1    2  502  501 -1.4805526021e+02 -1.1823278044e+02 -5.8488440966e+01 1.9829333870e+02 0.0000000000e+00 0.0000e+00 1.0000e+00
<mgrwt>
<rscale>  1 0.73636091E+03</rscale>
<asrwt>0</asrwt>
<pdfrwt beam="2">  1        2 0.16653222E+00 0.73636091E+03</pdfrwt>
<pdfrwt beam="1">  1       -2 0.18922985E+00 0.73636091E+03</pdfrwt>
<totfact> 0.35943498E+00</totfact>
</mgrwt>
</event>
<event>
 5      1 +1.8937969e-08 8.06376800e+02 7.81665300e-03 9.55083300e-02
       -3 -1    0    0    0  501 -0.0000000000e+00 +0.0000000000e+00 +1.2796028719e+03 1.2796028755e+03 9.5000000000e-02 0.0000e+00 1.0000e+00
        3 -1    0    0  502    0 +0.0000000000e+00 -0.0000000000e+00 -6.7026000661e+02 6.7026001334e+02 9.5000000000e-02 0.0000e+00 1.0000e+00
  1000022  1    1    2    0    0 +2.0518299116e+01 -5.3890709762e+02 -1.0780209394e+02 8.2319322606e+02 6.1252260000e+02 0.0000e+00 -1.0000e+00
  1000022  1    1    2    0    0 -8.1557696706e+01 +4.8670162894e+02 +6.2676630650e+02 1.0057584561e+03 6.1252260000e+02 0.0000e+00 -1.0000e+00
       21  1    1    2  502  501 +6.1039397590e+01 +5.2205468679e+01 +9.0378652779e+01 1.2091120666e+02 0.0000000000e+00 0.0000e+00 1.0000e+00
<mgrwt>
<rscale>  1 0.80637682E+03</rscale>
<asrwt>0</asrwt>
<pdfrwt beam="2">  1        3 0.10311692E+00 0.80637682E+03</pdfrwt>
<pdfrwt beam="1">  1       -3 0.19686198E+00 0.80637682E+03</pdfrwt>
<totfact> 0.32275405E-01</totfact>
</mgrwt>
</event>
<event>
 5      1 +1.8937969e-08 7.98843200e+02 7.81665300e-03 9.56169300e-02
       -2 -1    0    0    0  501 -0.0000000000e+00 +0.0000000000e+00 +3.3275997810e+02 3.3275997811e+02 2.5000000000e-03 0.0000e+00 1.0000e+00
        2 -1    0    0  502    0 +0.0000000000e+00 -0.0000000000e+00 -2.3449596056e+03 2.3449596056e+03 2.5000000000e-03 0.0000e+00 -1.0000e+00
  1000022  1    1    2    0    0 +1.2634339682e+02 +5.2899771797e+02 -1.3897517622e+03 1.6131940787e+03 6.1252260000e+02 0.0000e+00 -1.0000e+00
  1000022  1    1    2    0    0 -8.2496990542e+01 -4.5400722594e+02 -6.0286196958e+02 9.7547670630e+02 6.1252260000e+02 0.0000e+00 1.0000e+00
       21  1    1    2  502  501 -4.3846406281e+01 -7.4990492025e+01 -1.9585895724e+01 8.9048798696e+01 0.0000000000e+00 0.0000e+00 -1.0000e+00
<mgrwt>
<rscale>  1 0.79884320E+03</rscale>
<asrwt>0</asrwt>
<pdfrwt beam="2">  1        2 0.36076301E+00 0.79884320E+03</pdfrwt>
<pdfrwt beam="1">  1       -2 0.51193844E-01 0.79884320E+03</pdfrwt>
<totfact> 0.15957410E+01</totfact>
</mgrwt>
</event>
<event>
 5      1 +1.8937969e-08 7.35678700e+02 7.81665300e-03 9.65809000e-02
       -3 -1    0    0    0  501 -0.0000000000e+00 +0.0000000000e+00 +3.5221257381e+02 3.5221258662e+02 9.5000000000e-02 0.0000e+00 -1.0000e+00
        3 -1    0    0  502    0 +0.0000000000e+00 -0.0000000000e+00 -1.8541291594e+03 1.8541291619e+03 9.5000000000e-02 0.0000e+00 -1.0000e+00
  1000022  1    1    2    0    0 -3.7480899750e+02 -2.1075780766e+02 -1.0864336411e+03 1.3192507836e+03 6.1252260000e+02 0.0000e+00 1.0000e+00
  1000022  1    1    2    0    0 +3.1140319312e+02 +1.9511108137e+02 -4.0445632188e+02 8.2085877871e+02 6.1252260000e+02 0.0000e+00 1.0000e+00
       21  1    1    2  502  501 +6.3405804385e+01 +1.5646726282e+01 -1.1026622620e+01 6.6232186129e+01 0.0000000000e+00 0.0000e+00 -1.0000e+00
<mgrwt>
<rscale>  1 0.73567866E+03</rscale>
<asrwt>0</asrwt>
<pdfrwt beam="2">  1        3 0.28525064E+00 0.73567866E+03</pdfrwt>
<pdfrwt beam="1">  1       -3 0.54186552E-01 0.73567866E+03</pdfrwt>
<totfact> 0.41602091E-01</totfact>
</mgrwt>
</event>
<event>
 5      1 +1.8937969e-08 8.63624300e+02 7.81665300e-03 9.47223100e-02
       -3 -1    0    0    0  501 -0.0000000000e+00 +0.0000000000e+00 +4.9395976886e+02 4.9395977800e+02 9.5000000000e-02 0.0000e+00 -1.0000e+00
        3 -1    0    0  502    0 +0.0000000000e+00 -0.0000000000e+00 -1.9614077389e+03 1.9614077412e+03 9.5000000000e-02 0.0000e+00 -1.0000e+00
  1000022  1    1    2    0    0 +2.1856931070e+02 +5.6747583418e+02 -4.7018261591e+02 9.8288198364e+02 6.1252260000e+02 0.0000e+00 1.0000e+00
  1000022  1    1    2    0    0 -2.7068470771e+02 -5.4768208818e+02 -5.5745881473e+02 1.0291599226e+03 6.1252260000e+02 0.0000e+00 1.0000e+00
       21  1    1    2  502  501 +5.2115397007e+01 -1.9793746004e+01 -4.3980653939e+02 4.4332561293e+02 0.0000000000e+00 0.0000e+00 -1.0000e+00
<mgrwt>
<rscale>  1 0.86362427E+03</rscale>
<asrwt>0</asrwt>
<pdfrwt beam="2">  1        3 0.30175503E+00 0.86362427E+03</pdfrwt>
<pdfrwt beam="1">  1       -3 0.75993812E-01 0.86362427E+03</pdfrwt>
<totfact> 0.16106428E-01</totfact>
</mgrwt>
</event>
<event>
 5      1 +1.8937969e-08 8.21646900e+02 7.81665300e-03 9.52920200e-02
        2 -1    0    0  502    0 +0.0000000000e+00 +0.0000000000e+00 +2.8006603195e+03 2.8006603195e+03 2.5000000000e-03 0.0000e+00 1.0000e+00
       -2 -1    0    0    0  501 -0.0000000000e+00 -0.0000000000e+00 -3.5511781601e+02 3.5511781602e+02 2.5000000000e-03 0.0000e+00 -1.0000e+00
  1000022  1    1    2    0    0 +3.2848557830e+02 +4.1845029934e+02 +3.4552104116e+02 8.8180051801e+02 6.1252260000e+02 0.0000e+00 -1.0000e+00
  1000022  1    1    2    0    0 -3.3236974375e+02 -4.4103036646e+02 +2.0936004847e+03 2.2501831827e+03 6.1252260000e+02 0.0000e+00 1.0000e+00
       21  1    1    2  502  501 +3.8841654547e+00 +2.2580067124e+01 +6.4209775883e+00 2.3794434765e+01 0.0000000000e+00 0.0000e+00 -1.0000e+00
<mgrwt>
<rscale>  1 0.82164685E+03</rscale>
<asrwt>0</asrwt>
<pdfrwt beam="1">  1        2 0.43087080E+00 0.82164685E+03</pdfrwt>
<pdfrwt beam="2">  1       -2 0.54633512E-01 0.82164685E+03</pdfrwt>
<totfact> 0.76132701E+00</totfact>
</mgrwt>
</event>
<event>
 5      1 +1.8937969e-08 8.10266800e+02 7.81665300e-03 9.54527400e-02
        3 -1    0    0  502    0 +0.0000000000e+00 +0.0000000000e+00 +2.4032764548e+03 2.4032764567e+03 9.5000000000e-02 0.0000e+00 1.0000e+00
       -3 -1    0    0    0  501 -0.0000000000e+00 -0.0000000000e+00 -3.5497380409e+02 3.5497381680e+02 9.5000000000e-02 0.0000e+00 1.0000e+00
  1000022  1    1    2    0    0 -1.3810416072e+02 -5.2375298174e+02 +1.4087081683e+03 1.6288132440e+03 6.1252260000e+02 0.0000e+00 -1.0000e+00
  1000022  1    1    2    0    0 +1.6456442838e+02 +4.9935657408e+02 +4.2582804627e+02 9.1266198544e+02 6.1252260000e+02 0.0000e+00 -1.0000e+00
       21  1    1    2  502  501 -2.6460267657e+01 +2.4396407656e+01 +2.1376643617e+02 2.1677504400e+02 0.0000000000e+00 0.0000e+00 1.0000e+00
<mgrwt>
<rscale>  1 0.81026682E+03</rscale>
<asrwt>0</asrwt>
<pdfrwt beam="1">  1        3 0.36973483E+00 0.81026682E+03</pdfrwt>
<pdfrwt beam="2">  1       -3 0.54611357E-01 0.81026682E+03</pdfrwt>
<totfact> 0.14215303E-01</totfact>
</mgrwt>
</event>
<event>
 5      1 +1.8937969e-08 8.12400500e+02 7.81665300e-03 9.54223900e-02
        3 -1    0    0  502    0 +0.0000000000e+00 +0.0000000000e+00 +7.7580978519e+02 7.7580979101e+02 9.5000000000e-02 0.0000e+00 1.0000e+00
       -3 -1    0    0    0  501 -0.0000000000e+00 -0.0000000000e+00 -1.1618341387e+03 1.1618341426e+03 9.5000000000e-02 0.0000e+00 1.0000e+00
  1000022  1    1    2    0    0 -6.0322724392e+02 +5.2499281686e+01 +6.9023303950e+01 8.6405291179e+02 6.1252260000e+02 0.0000e+00 -1.0000e+00
  1000022  1    1    2    0    0 +4.9666068915e+02 -6.6053194516e+01 -5.2108102501e+02 9.4749365950e+02 6.1252260000e+02 0.0000e+00 -1.0000e+00
       21  1    1    2  502  501 +1.0656655477e+02 +1.3553912830e+01 +6.6033367551e+01 1.2609736230e+02 0.0000000000e+00 0.0000e+00 1.0000e+00
<mgrwt>
<rscale>  1 0.81240050E+03</rscale>
<asrwt>0</asrwt>
<pdfrwt beam="1">  1        3 0.11935535E+00 0.81240050E+03</pdfrwt>
<pdfrwt beam="2">  1       -3 0.17874371E+00 0.81240050E+03</pdfrwt>
<totfact> 0.29828586E-01</totfact>
</mgrwt>
</event>
<event>
 5      1 +1.8937969e-08 7.68967700e+02 7.81665300e-03 9.60605400e-02
       -1 -1    0    0    0  501 -0.0000000000e+00 +0.0000000000e+00 +4.4541953868e+02 4.4541953871e+02 5.0000000000e-03 0.0000e+00 1.0000e+00
        1 -1    0    0  502    0 +0.0000000000e+00 -0.0000000000e+00 -1.4943635075e+03 1.4943635075e+03 5.0000000000e-03 0.0000e+00 -1.0000e+00
  1000022  1    1    2    0    0 -2.6066957125e+02 -3.4956290779e+02 -5.1767507557e+02 9.1286048838e+02 6.1252260000e+02 0.0000e+00 1.0000e+00
  1000022  1    1    2    0    0 +2.6795400259e+02 +4.1160319849e+02 -3.9908286974e+02 8.8071994013e+02 6.1252260000e+02 0.0000e+00 -1.0000e+00
       21  1    1    2  502  501 -7.2844313435e+00 -6.2040290708e+01 -1.3218602351e+02 1.4620261770e+02 0.0000000000e+00 0.0000e+00 -1.0000e+00
<mgrwt>
<rscale>  1 0.76896771E+03</rscale>
<asrwt>0</asrwt>
<pdfrwt beam="2">  1        1 0.22990208E+00 0.76896771E+03</pdfrwt>
<pdfrwt beam="1">  1       -1 0.68526083E-01 0.76896771E+03</pdfrwt>
<totfact> 0.14705201E+01</totfact>
</mgrwt>
</event>
<event>
 5      1 +1.8937969e-08 8.71330000e+02 7.81665300e-03 9.46214700e-02
        3 -1    0    0  502    0 +0.0000000000e+00 +0.0000000000e+00 +1.5001074838e+03 1.5001074868e+03 9.5000000000e-02 0.0000e+00 1.0000e+00
       -3 -1    0    0    0  501 -0.0000000000e+00 -0.0000000000e+00 -5.8798322692e+02 5.8798323460e+02 9.5000000000e-02 0.0000e+00 1.0000e+00
  1000022  1    1    2    0    0 -3.1987635464e+02 -5.4600438845e+02 +5.9366538617e+02 1.0621036676e+03 6.1252260000e+02 0.0000e+00 -1.0000e+00
  1000022  1    1    2    0    0 +3.1495558008e+02 +5.1571939561e+02 +3.9258306986e+02 9.4576366746e+02 6.1252260000e+02 0.0000e+00 -1.0000e+00
       21  1    1    2  502  501 +4.9207745507e+00 +3.0284992841e+01 -7.4124199172e+01 8.0223386344e+01 0.0000000000e+00 0.0000e+00 -1.0000e+00
<mgrwt>
<rscale>  1 0.87132999E+03</rscale>
<asrwt>0</asrwt>
<pdfrwt beam="1">  1        3 0.23078577E+00 0.87132999E+03</pdfrwt>
<pdfrwt beam="2">  1       -3 0.90458960E-01 0.87132999E+03</pdfrwt>
<totfact> 0.27230487E-01</totfact>
</mgrwt>
</event>
<event>
 5      1 +1.8937969e-08 8.46708900e+02 7.81665300e-03 9.49476500e-02
       -3 -1    0    0    0  501 -0.0000000000e+00 +0.0000000000e+00 +2.4046871182e+03 2.4046871201e+03 9.5000000000e-02 0.0000e+00 1.0000e+00
        3 -1    0    0  502    0 +0.0000000000e+00 -0.0000000000e+00 -3.4589464312e+02 3.4589465616e+02 9.5000000000e-02 0.0000e+00 1.0000e+00
  1000022  1    1    2    0    0 -4.0066892031e+02 +4.5506583014e+02 +7.1748379438e+02 1.1214220544e+03 6.1252260000e+02 0.0000e+00 -1.0000e+00
  1000022  1    1    2    0    0 +4.1428761210e+02 -3.9486207057e+02 +1.3203225580e+03 1.5639647927e+03 6.1252260000e+02 0.0000e+00 -1.0000e+00
       21  1    1    2  502  501 -1.3618691796e+01 -6.0203759577e+01 +2.0986122779e+01 6.5194929119e+01 0.0000000000e+00 0.0000e+00 1.0000e+00
<mgrwt>
<rscale>  1 0.84670886E+03</rscale>
<asrwt>0</asrwt>
<pdfrwt beam="2">  1        3 0.53214564E-01 0.84670886E+03</pdfrwt>
<pdfrwt beam="1">  1       -3 0.36995185E+00 0.84670886E+03</pdfrwt>
<totfact> 0.14385536E-01</totfact>
</mgrwt>
</event>
<event>
 5      1 +1.8937969e-08 8.19791900e+02 7.81665300e-03 9.53180300e-02
        3 -1    0    0  502    0 +0.0000000000e+00 +0.0000000000e+00 +5.4732734820e+02 5.4732735645e+02 9.5000000000e-02 0.0000e+00 -1.0000e+00
       -3 -1    0    0    0  501 -0.0000000000e+00 -0.0000000000e+00 -1.3972830085e+03 1.3972830117e+03 9.5000000000e-02 0.0000e+00 -1.0000e+00
  1000022  1    1    2    0    0 +4.3917521002e+02 +3.1189823659e+02 -1.5164995307e+02 8.2966078542e+02 6.1252260000e+02 0.0000e+00 1.0000e+00
  1000022  1    1    2    0    0 -4.6241602492e+02 -2.9509074990e+02 -7.0760082696e+02 1.0847995191e+03 6.1252260000e+02 0.0000e+00 1.0000e+00
       21  1    1    2  502  501 +2.3240814901e+01 -1.6807486687e+01 +9.2951197686e+00 3.0150063640e+01 0.0000000000e+00 0.0000e+00 1.0000e+00
<mgrwt>
<rscale>  1 0.81979190E+03</rscale>
<asrwt>0</asrwt>
<pdfrwt beam="1">  1        3 0.84204209E-01 0.81979190E+03</pdfrwt>
<pdfrwt beam="2">  1       -3 0.21496662E+00 0.81979190E+03</pdfrwt>
<totfact> 0.39765420E-01</totfact>
</mgrwt>
</event>
<event>
 5      1 +1.8937969e-08 6.38125400e+02 7.81665300e-03 9.82932000e-02
       -2 -1    0    0    0  501 -0.0000000000e+00 +0.0000000000e+00 +2.2778459121e+02 2.2778459122e+02 2.5000000000e-03 0.0000e+00 1.0000e+00
        2 -1    0    0  502    0 +0.0000000000e+00 -0.0000000000e+00 -2.3052063233e+03 2.3052063233e+03 2.5000000000e-03 0.0000e+00 -1.0000e+00
  1000022  1    1    2    0    0 +7.0800203802e+01 -1.7117234027e+02 -4.7212049395e+02 7.9523225240e+02 6.1252260000e+02 0.0000e+00 1.0000e+00
  1000022  1    1    2    0    0 -6.6552697548e+01 +1.4955949576e+02 -1.4732777650e+03 1.6039104130e+03 6.1252260000e+02 0.0000e+00 -1.0000e+00
       21  1    1    2  502  501 -4.2475062540e+00 +2.1612844509e+01 -1.3202347315e+02 1.3384824922e+02 0.0000000000e+00 0.0000e+00 1.0000e+00
<mgrwt>
<rscale>  1 0.63812540E+03</rscale>
<asrwt>0</asrwt>
<pdfrwt beam="2">  1        2 0.35464711E+00 0.63812540E+03</pdfrwt>
<pdfrwt beam="1">  1       -2 0.35043785E-01 0.63812540E+03</pdfrwt>
<totfact> 0.36311068E+01</totfact>
</mgrwt>
</event>
<event>
 5      1 +1.8937969e-08 9.62939900e+02 7.81665300e-03 9.35015200e-02
        2 -1    0    0  502    0 +0.0000000000e+00 +0.0000000000e+00 +6.8983690646e+02 6.8983690647e+02 2.5000000000e-03 0.0000e+00 -1.0000e+00
       -2 -1    0    0    0  501 -0.0000000000e+00 -0.0000000000e+00 -1.5766659742e+03 1.5766659742e+03 2.5000000000e-03 0.0000e+00 1.0000e+00
  1000022  1    1    2    0    0 +5.0701526512e+01 -7.4778781175e+02 -7.5611193090e+02 1.2282696950e+03 6.1252260000e+02 0.0000e+00 -1.0000e+00
  1000022  1    1    2    0    0 -2.4502855428e+01 +7.3208128092e+02 -1.8812914481e+02 9.7320085411e+02 6.1252260000e+02 0.0000e+00 1.0000e+00
       21  1    1    2  502  501 -2.6198671085e+01 +1.5706530827e+01 +5.7412007997e+01 6.5032331494e+01 0.0000000000e+00 0.0000e+00 -1.0000e+00
<mgrwt>
<rscale>  1 0.96293988E+03</rscale>
<asrwt>0</asrwt>
<pdfrwt beam="1">  1        2 0.10612876E+00 0.96293988E+03</pdfrwt>
<pdfrwt beam="2">  1       -2 0.24256399E+00 0.96293988E+03</pdfrwt>
<totfact> 0.29851761E+00</totfact>
</mgrwt>
</event>
<event>
 5      1 +1.8937969e-08 7.78065600e+02 7.81665300e-03 9.59232000e-02
        1 -1    0    0  502    0 +0.0000000000e+00 +0.0000000000e+00 +1.8799632429e+03 1.8799632429e+03 5.0000000000e-03 0.0000e+00 -1.0000e+00
       -1 -1    0    0    0  501 -0.0000000000e+00 -0.0000000000e+00 -4.0660399817e+02 4.0660399820e+02 5.0000000000e-03 0.0000e+00 1.0000e+00
  1000022  1    1    2    0    0 +4.6688672925e+02 +3.0787147801e+01 +9.3649847584e+02 1.2129074149e+03 6.1252260000e+02 0.0000e+00 -1.0000e+00
  1000022  1    1    2    0    0 -4.8307859729e+02 +9.9900314301e+01 +3.9496006125e+02 8.8006953672e+02 6.1252260000e+02 0.0000e+00 1.0000e+00
       21  1    1    2  502  501 +1.6191868040e+01 -1.3068746210e+02 +1.4190070761e+02 1.9359028943e+02 0.0000000000e+00 0.0000e+00 -1.0000e+00
<mgrwt>
<rscale>  1 0.77806563E+03</rscale>
<asrwt>0</asrwt>
<pdfrwt beam="1">  1        1 0.28922511E+00 0.77806563E+03</pdfrwt>
<pdfrwt beam="2">  1       -1 0.62554461E-01 0.77806563E+03</pdfrwt>
<totfact> 0.96885579E+00</totfact>
</mgrwt>
</event>
<event>
 5      1 +1.8937969e-08 8.16669400e+02 7.81665300e-03 9.53619700e-02
        3 -1    0    0  502    0 +0.0000000000e+00 +0.0000000000e+00 +1.0846032516e+03 1.0846032558e+03 9.5000000000e-02 0.0000e+00 -1.0000e+00
       -3 -1    0    0    0  501 -0.0000000000e+00 -0.0000000000e+00 -7.2471714277e+02 7.2471714900e+02 9.5000000000e-02 0.0000e+00 -1.0000e+00
  1000022  1    1    2    0    0 +3.1495489724e+02 -4.4121548816e+02 -1.2335473804e+02 8.2720494510e+02 6.1252260000e+02 0.0000e+00 1.0000e+00
  1000022  1    1    2    0    0 -3.3915458103e+02 +4.1959226917e+02 +4.8525555100e+02 9.4960011977e+02 6.1252260000e+02 0.0000e+00 1.0000e+00
       21  1    1    2  502  501 +2.4199683790e+01 +2.1623218990e+01 -2.0147041446e+00 3.2515339885e+01 0.0000000000e+00 0.0000e+00 1.0000e+00
<mgrwt>
<rscale>  1 0.81666943E+03</rscale>
<asrwt>0</asrwt>
<pdfrwt beam="1">  1        3 0.16686204E+00 0.81666943E+03</pdfrwt>
<pdfrwt beam="2">  1       -3 0.11149495E+00 0.81666943E+03</pdfrwt>
<totfact> 0.42536223E-01</totfact>
</mgrwt>
</event>
<event>
 5      1 +1.8937969e-08 8.33207800e+02 7.81665300e-03 9.51315600e-02
        3 -1    0    0  502    0 +0.0000000000e+00 +0.0000000000e+00 +5.1708442102e+02 5.1708442975e+02 9.5000000000e-02 0.0000e+00 -1.0000e+00
       -3 -1    0    0    0  501 -0.0000000000e+00 -0.0000000000e+00 -1.9420404763e+03 1.9420404787e+03 9.5000000000e-02 0.0000e+00 -1.0000e+00
  1000022  1    1    2    0    0 +5.4923155012e+02 +2.0511996402e+02 -1.7124424250e+02 8.6500752678e+02 6.1252260000e+02 0.0000e+00 1.0000e+00
  1000022  1    1    2    0    0 -5.2378540047e+02 -8.1076329470e+01 -8.6384843246e+02 1.1842054580e+03 6.1252260000e+02 0.0000e+00 1.0000e+00
       21  1    1    2  502  501 -2.5446149650e+01 -1.2404363455e+02 -3.8986338035e+02 4.0991192364e+02 0.0000000000e+00 0.0000e+00 -1.0000e+00
<mgrwt>
<rscale>  1 0.83320783E+03</rscale>
<asrwt>0</asrwt>
<pdfrwt beam="1">  1        3 0.79551451E-01 0.83320783E+03</pdfrwt>
<pdfrwt beam="2">  1       -3 0.29877546E+00 0.83320783E+03</pdfrwt>
<totfact> 0.14897495E-01</totfact>
</mgrwt>
</event>
<event>
 5      1 +1.8937969e-08 7.08773400e+02 7.81665300e-03 9.70234500e-02
       -2 -1    0    0    0  501 -0.0000000000e+00 +0.0000000000e+00 +7.5510628744e+02 7.5510628744e+02 2.5000000000e-03 0.0000e+00 1.0000e+00
        2 -1    0    0  502    0 +0.0000000000e+00 -0.0000000000e+00 -1.5042628683e+03 1.5042628683e+03 2.5000000000e-03 0.0000e+00 -1.0000e+00
  1000022  1    1    2    0    0 -3.4560754270e+02 +3.4996028453e+01 -9.3889289033e+02 1.1736153930e+03 6.1252260000e+02 0.0000e+00 -1.0000e+00
  1000022  1    1    2    0    0 +3.9949399378e+02 +2.5101135856e+02 +1.8351886422e+02 7.9464788569e+02 6.1252260000e+02 0.0000e+00 1.0000e+00
       21  1    1    2  502  501 -5.3886451088e+01 -2.8600738701e+02 +6.2174452664e+00 2.9110587707e+02 0.0000000000e+00 0.0000e+00 1.0000e+00
<mgrwt>
<rscale>  1 0.70877338E+03</rscale>
<asrwt>0</asrwt>
<pdfrwt beam="2">  1        2 0.23142506E+00 0.70877338E+03</pdfrwt>
<pdfrwt beam="1">  1       -2 0.11617020E+00 0.70877338E+03</pdfrwt>
<totfact> 0.74882748E+00</totfact>
</mgrwt>
</event>
<event>
 5      1 +1.8937969e-08 8.36189300e+02 7.81665300e-03 9.50906300e-02
        3 -1    0    0  502    0 -0.0000000000e+00 +0.0000000000e+00 +3.6090202161e+02 3.6090203412e+02 9.5000000000e-02 0.0000e+00 1.0000e+00
       21 -1    0    0  501  502 +0.0000000000e+00 -0.0000000000e+00 -2.3508373894e+03 2.3508373894e+03 0.0000000000e+00 0.0000e+00 1.0000e+00
  1000022  1    1    2    0    0 -2.9468140538e+02 +4.7308257103e+02 -6.5095611135e+02 1.0533622568e+03 6.1252260000e+02 0.0000e+00 -1.0000e+00
  1000022  1    1    2    0    0 +2.7873469300e+02 -5.1507281393e+02 -9.7577546008e+02 1.2924065602e+03 6.1252260000e+02 0.0000e+00 -1.0000e+00
        3  1    1    2  501    0 +1.5946712380e+01 +4.1990242894e+01 -3.6320379633e+02 3.6597060651e+02 9.5000000000e-02 0.0000e+00 -1.0000e+00
<mgrwt>
<rscale>  1 0.83618930E+03</rscale>
<asrwt>0</asrwt>
<pdfrwt beam="2">  1       21 0.36166730E+00 0.83618930E+03</pdfrwt>
<pdfrwt beam="1">  1        3 0.55523388E-01 0.83618930E+03</pdfrwt>
<totfact> 0.16508741E+00</totfact>
</mgrwt>
</event>
<event>
 5      1 +1.8937969e-08 9.57762800e+02 7.81665300e-03 9.35612300e-02
        2 -1    0    0  502    0 +0.0000000000e+00 +0.0000000000e+00 +1.2422197807e+03 1.2422197807e+03 2.5000000000e-03 0.0000e+00 -1.0000e+00
       -2 -1    0    0    0  501 -0.0000000000e+00 -0.0000000000e+00 -1.1824501015e+03 1.1824501015e+03 2.5000000000e-03 0.0000e+00 1.0000e+00
  1000022  1    1    2    0    0 +7.8045826732e+02 -2.1287583578e+02 -4.6999599879e+02 1.1182626717e+03 6.1252260000e+02 0.0000e+00 1.0000e+00
  1000022  1    1    2    0    0 -6.7602789419e+02 +2.3006478730e+02 +6.5205106551e+02 1.1446825095e+03 6.1252260000e+02 0.0000e+00 -1.0000e+00
       21  1    1    2  502  501 -1.0443037313e+02 -1.7188951512e+01 -1.2228538757e+02 1.6172470095e+02 0.0000000000e+00 0.0000e+00 1.0000e+00
<mgrwt>
<rscale>  1 0.95776281E+03</rscale>
<asrwt>0</asrwt>
<pdfrwt beam="1">  1        2 0.19111074E+00 0.95776281E+03</pdfrwt>
<pdfrwt beam="2">  1       -2 0.18191540E+00 0.95776281E+03</pdfrwt>
<totfact> 0.31334758E+00</totfact>
</mgrwt>
</event>
<event>
 5      1 +1.8937969e-08 8.07390900e+02 7.81665300e-03 9.54938000e-02
        3 -1    0    0  502    0 -0.0000000000e+00 +0.0000000000e+00 +9.8548255172e+02 9.8548255629e+02 9.5000000000e-02 0.0000e+00 -1.0000e+00
       21 -1    0    0  501  502 +0.0000000000e+00 -0.0000000000e+00 -8.8075435122e+02 8.8075435122e+02 0.0000000000e+00 0.0000e+00 -1.0000e+00
  1000022  1    1    2    0    0 +1.0645272740e+02 -4.9227918416e+02 -2.2079993161e+02 8.2316919502e+02 6.1252260000e+02 0.0000e+00 1.0000e+00
  1000022  1    1    2    0    0 -1.9777450072e+02 +5.0134922272e+02 +4.1460388124e+02 9.1517545318e+02 6.1252260000e+02 0.0000e+00 1.0000e+00
        3  1    1    2  501    0 +9.1321773326e+01 -9.0700385645e+00 -8.9075749129e+01 1.2789225931e+02 9.5000000000e-02 0.0000e+00 1.0000e+00
<mgrwt>
<rscale>  1 0.80739085E+03</rscale>
<asrwt>0</asrwt>
<pdfrwt beam="2">  1       21 0.13550067E+00 0.80739085E+03</pdfrwt>
<pdfrwt beam="1">  1        3 0.15161270E+00 0.80739085E+03</pdfrwt>
<totfact> 0.52071970E+00</totfact>
</mgrwt>
</event>
<event>
 5      1 +1.8937969e-08 8.15720700e+02 7.81665300e-03 9.53753700e-02
       -3 -1    0    0    0  501 -0.0000000000e+00 +0.0000000000e+00 +1.9668081481e+03 1.9668081504e+03 9.5000000000e-02 0.0000e+00 -1.0000e+00
        3 -1    0    0  502    0 +0.0000000000e+00 -0.0000000000e+00 -4.5819507961e+02 4.5819508946e+02 9.5000000000e-02 0.0000e+00 -1.0000e+00
  1000022  1    1    2    0    0 -4.7865011072e+02 -2.4606262098e+02 +1.2484027884e+03 1.4910889308e+03 6.1252260000e+02 0.0000e+00 1.0000e+00
  1000022  1    1    2    0    0 +4.6256974474e+02 +2.7708640033e+02 +1.6508928441e+02 8.3257795391e+02 6.1252260000e+02 0.0000e+00 1.0000e+00
       21  1    1    2  502  501 +1.6080365986e+01 -3.1023779354e+01 +9.5120995714e+01 1.0133635518e+02 0.0000000000e+00 0.0000e+00 -1.0000e+00
<mgrwt>
<rscale>  1 0.81572075E+03</rscale>
<asrwt>0</asrwt>
<pdfrwt beam="2">  1        3 0.70491552E-01 0.81572075E+03</pdfrwt>
<pdfrwt beam="1">  1       -3 0.30258587E+00 0.81572075E+03</pdfrwt>
<totfact> 0.18584251E-01</totfact>
</mgrwt>
</event>
<event>
 5      1 +1.8937969e-08 7.86353600e+02 7.81665300e-03 9.57998200e-02
        2 -1    0    0  502    0 +0.0000000000e+00 +0.0000000000e+00 +2.1419354072e+03 2.1419354072e+03 2.5000000000e-03 0.0000e+00 -1.0000e+00
       -2 -1    0    0    0  501 -0.0000000000e+00 -0.0000000000e+00 -4.6278879453e+02 4.6278879453e+02 2.5000000000e-03 0.0000e+00 1.0000e+00
  1000022  1    1    2    0    0 +4.9337540904e+02 -7.3378179580e+01 +6.8328863006e+01 7.9287856606e+02 6.1252260000e+02 0.0000e+00 1.0000e+00
  1000022  1    1    2    0    0 -4.7122832491e+02 +4.7145963019e+01 +1.4143846138e+03 1.6124350056e+03 6.1252260000e+02 0.0000e+00 -1.0000e+00
       21  1    1    2  502  501 -2.2147084133e+01 +2.6232216561e+01 +1.9643313583e+02 1.9941063005e+02 0.0000000000e+00 0.0000e+00 1.0000e+00
<mgrwt>
<rscale>  1 0.78635364E+03</rscale>
<asrwt>0</asrwt>
<pdfrwt beam="1">  1        2 0.32952853E+00 0.78635364E+03</pdfrwt>
<pdfrwt beam="2">  1       -2 0.71198276E-01 0.78635364E+03</pdfrwt>
<totfact> 0.10301049E+01</totfact>
</mgrwt>
</event>
<event>
 5      1 +1.8937969e-08 7.88006900e+02 7.81665300e-03 9.57754100e-02
        2 -1    0    0  502    0 +0.0000000000e+00 +0.0000000000e+00 +1.2787856877e+03 1.2787856877e+03 2.5000000000e-03 0.0000e+00 1.0000e+00
       -2 -1    0    0    0  501 -0.0000000000e+00 -0.0000000000e+00 -6.1831509631e+02 6.1831509632e+02 2.5000000000e-03 0.0000e+00 -1.0000e+00
  1000022  1    1    2    0    0 +2.0065370485e+02 -4.5671087765e+02 -6.9267616132e+01 7.9298718350e+02 6.1252260000e+02 0.0000e+00 1.0000e+00
  1000022  1    1    2    0    0 -2.3112656847e+02 +4.3758972378e+02 +7.1961840605e+02 1.0667421632e+03 6.1252260000e+02 0.0000e+00 -1.0000e+00
       21  1    1    2  502  501 +3.0472863618e+01 +1.9121153874e+01 +1.0119801471e+01 3.7371437280e+01 0.0000000000e+00 0.0000e+00 -1.0000e+00
<mgrwt>
<rscale>  1 0.78800694E+03</rscale>
<asrwt>0</asrwt>
<pdfrwt beam="1">  1        2 0.19673626E+00 0.78800694E+03</pdfrwt>
<pdfrwt beam="2">  1       -2 0.95125400E-01 0.78800694E+03</pdfrwt>
<totfact> 0.16058427E+01</totfact>
</mgrwt>
</event>
<event>
 5      1 +1.8937969e-08 8.48758100e+02 7.81665300e-03 9.49200500e-02
       -3 -1    0    0    0  501 -0.0000000000e+00 +0.0000000000e+00 +1.0049357136e+03 1.0049357181e+03 9.5000000000e-02 0.0000e+00 -1.0000e+00
        3 -1    0    0  502    0 +0.0000000000e+00 -0.0000000000e+00 -8.2280471636e+02 8.2280472185e+02 9.5000000000e-02 0.0000e+00 -1.0000e+00
  1000022  1    1    2    0    0 +5.7570847169e+02 -2.9178614274e+01 -1.5214241470e+02 8.5476481313e+02 6.1252260000e+02 0.0000e+00 1.0000e+00
  1000022  1    1    2    0    0 -6.0414126017e+02 +5.3649587282e+01 +2.7872192003e+02 9.0594413993e+02 6.1252260000e+02 0.0000e+00 1.0000e+00
       21  1    1    2  502  501 +2.8432788477e+01 -2.4470973008e+01 +5.5551491942e+01 6.7031486911e+01 0.0000000000e+00 0.0000e+00 1.0000e+00
<mgrwt>
<rscale>  1 0.84875813E+03</rscale>
<asrwt>0</asrwt>
<pdfrwt beam="2">  1        3 0.12658534E+00 0.84875813E+03</pdfrwt>
<pdfrwt beam="1">  1       -3 0.15460549E+00 0.84875813E+03</pdfrwt>
<totfact> 0.38075381E-01</totfact>
</mgrwt>
</event>
<event>
 5      1 +1.8937969e-08 7.34613400e+02 7.81665300e-03 9.65980300e-02
       -2 -1    0    0    0  501 -0.0000000000e+00 +0.0000000000e+00 +8.4257559292e+02 8.4257559292e+02 2.5000000000e-03 0.0000e+00 1.0000e+00
       21 -1    0    0  501  502 +0.0000000000e+00 -0.0000000000e+00 -8.5162041714e+02 8.5162041714e+02 0.0000000000e+00 0.0000e+00 -1.0000e+00
  1000022  1    1    2    0    0 +2.2618474967e+02 -2.8407721258e+02 -8.1872880398e+01 7.1676112321e+02 6.1252260000e+02 0.0000e+00 -1.0000e+00
  1000022  1    1    2    0    0 -3.8899935984e+02 +2.4666339711e+02 -5.3111629071e+01 7.6822399994e+02 6.1252260000e+02 0.0000e+00 1.0000e+00
       -2  1    1    2    0  502 +1.6281461017e+02 +3.7413815468e+01 +1.2593968525e+02 2.0921088691e+02 2.5000000000e-03 0.0000e+00 1.0000e+00
<mgrwt>
<rscale>  1 0.73461344E+03</rscale>
<asrwt>0</asrwt>
<pdfrwt beam="2">  1       21 0.13101853E+00 0.73461344E+03</pdfrwt>
<pdfrwt beam="1">  1       -2 0.12962701E+00 0.73461344E+03</pdfrwt>
<totfact> 0.12904253E+01</totfact>
</mgrwt>
</event>
<event>
 5      1 +1.8937969e-08 6.22044500e+02 7.81665300e-03 9.86069700e-02
        4 -1    0    0  502    0 +0.0000000000e+00 +0.0000000000e+00 +2.6442567107e+02 2.6442872087e+02 1.2700000000e+00 0.0000e+00 -1.0000e+00
       -4 -1    0    0    0  501 -0.0000000000e+00 -0.0000000000e+00 -2.1960639968e+03 2.1960643640e+03 1.2700000000e+00 0.0000e+00 1.0000e+00
  1000022  1    1    2    0    0 +5.5315570690e+01 +9.8673315850e+01 -1.5592378688e+03 1.6790482134e+03 6.1252260000e+02 0.0000e+00 1.0000e+00
  1000022  1    1    2    0    0 -8.0200977486e+01 -7.2860058997e+01 -2.7964690862e+02 6.8200228299e+02 6.1252260000e+02 0.0000e+00 -1.0000e+00
       21  1    1    2  502  501 +2.4885406796e+01 -2.5813256853e+01 -9.2753548256e+01 9.9442588537e+01 0.0000000000e+00 0.0000e+00 1.0000e+00
<mgrwt>
<rscale>  1 0.62204455E+03</rscale>
<asrwt>0</asrwt>
<pdfrwt beam="1">  1        4 0.40681137E-01 0.62204455E+03</pdfrwt>
<pdfrwt beam="2">  1       -4 0.33785625E+00 0.62204455E+03</pdfrwt>
<totfact> 0.21644248E-01</totfact>
</mgrwt>
</event>
<event>
 5      1 +1.8937969e-08 1.38667600e+03 7.81665300e-03 9.05268000e-02
       21 -1    0    0  501  502 +0.0000000000e+00 +0.0000000000e+00 +1.9208430951e+03 1.9208430951e+03 0.0000000000e+00 0.0000e+00 -1.0000e+00
        2 -1    0    0  502    0 -0.0000000000e+00 -0.0000000000e+00 -2.2859981412e+03 2.2859981412e+03 2.5000000000e-03 0.0000e+00 -1.0000e+00
  1000022  1    1    2    0    0 -5.3190673346e+02 +5.4889494329e+02 -7.2286409849e+02 1.2173441881e+03 6.1252260000e+02 0.0000e+00 -1.0000e+00
  1000022  1    1    2    0    0 -8.3928738381e+02 -6.2328844501e+02 -5.6314081384e+02 1.3361150063e+03 6.1252260000e+02 0.0000e+00 1.0000e+00
        2  1    1    2  501    0 +1.3711941173e+03 +7.4393501721e+01 +9.2084986631e+02 1.6533820419e+03 2.5000000000e-03 0.0000e+00 -1.0000e+00
<mgrwt>
<rscale>  1 0.12712499E+04</rscale>
<asrwt>0</asrwt>
<pdfrwt beam="1">  1       21 0.29551432E+00 0.13866761E+04</pdfrwt>
<pdfrwt beam="2">  1        2 0.35169202E+00 0.13866761E+04</pdfrwt>
<totfact> 0.12984880E+00</totfact>
</mgrwt>
</event>
<event>
 5      1 +1.8937969e-08 7.39168800e+02 7.81665300e-03 9.65249800e-02
        3 -1    0    0  502    0 +0.0000000000e+00 +0.0000000000e+00 +6.4110844566e+02 6.4110845270e+02 9.5000000000e-02 0.0000e+00 -1.0000e+00
       -3 -1    0    0    0  501 -0.0000000000e+00 -0.0000000000e+00 -1.0613360501e+03 1.0613360544e+03 9.5000000000e-02 0.0000e+00 -1.0000e+00
  1000022  1    1    2    0    0 -3.0684745094e+02 +3.0946763721e+02 -8.0790775326e+01 7.5606657215e+02 6.1252260000e+02 0.0000e+00 1.0000e+00
  1000022  1    1    2    0    0 +1.8427847813e+02 -3.5316976961e+02 -2.0411152911e+02 7.5863884391e+02 6.1252260000e+02 0.0000e+00 1.0000e+00
       21  1    1    2  502  501 +1.2256897282e+02 +4.3702132397e+01 -1.3532530004e+02 1.8773909104e+02 0.0000000000e+00 0.0000e+00 -1.0000e+00
<mgrwt>
<rscale>  1 0.73916882E+03</rscale>
<asrwt>0</asrwt>
<pdfrwt beam="1">  1        3 0.98632070E-01 0.73916882E+03</pdfrwt>
<pdfrwt beam="2">  1       -3 0.16328247E+00 0.73916882E+03</pdfrwt>
<totfact> 0.60462354E-01</totfact>
</mgrwt>
</event>
<event>
 5      1 +1.8937969e-08 8.23428300e+02 7.81665300e-03 9.52671100e-02
       -3 -1    0    0    0  501 -0.0000000000e+00 +0.0000000000e+00 +7.6730858321e+02 7.6730858909e+02 9.5000000000e-02 0.0000e+00 -1.0000e+00
        3 -1    0    0  502    0 +0.0000000000e+00 -0.0000000000e+00 -1.0386102833e+03 1.0386102876e+03 9.5000000000e-02 0.0000e+00 -1.0000e+00
  1000022  1    1    2    0    0 -1.9319660356e+02 -5.1542394722e+02 +1.8185598249e+02 8.4335182864e+02 6.1252260000e+02 0.0000e+00 -1.0000e+00
  1000022  1    1    2    0    0 +1.7386165340e+02 +5.2219979125e+02 -4.5691003918e+02 9.4173840100e+02 6.1252260000e+02 0.0000e+00 -1.0000e+00
       21  1    1    2  502  501 +1.9334950162e+01 -6.7758440284e+00 +3.7523565949e+00 2.0828647101e+01 0.0000000000e+00 0.0000e+00 1.0000e+00
<mgrwt>
<rscale>  1 0.82342833E+03</rscale>
<asrwt>0</asrwt>
<pdfrwt beam="2">  1        3 0.15978620E+00 0.82342833E+03</pdfrwt>
<pdfrwt beam="1">  1       -3 0.11804747E+00 0.82342833E+03</pdfrwt>
<totfact> 0.41580709E-01</totfact>
</mgrwt>
</event>
<event>
 5      1 +1.8937969e-08 8.07584600e+02 7.81665300e-03 9.54910300e-02
        3 -1    0    0  502    0 +0.0000000000e+00 +0.0000000000e+00 +6.3088689814e+02 6.3088690529e+02 9.5000000000e-02 0.0000e+00 -1.0000e+00
       -3 -1    0    0    0  501 -0.0000000000e+00 -0.0000000000e+00 -1.4600542747e+03 1.4600542778e+03 9.5000000000e-02 0.0000e+00 -1.0000e+00
  1000022  1    1    2    0    0 +1.9704368115e+02 -4.7820835244e+02 -8.3118868241e+01 8.0597898384e+02 6.1252260000e+02 0.0000e+00 1.0000e+00
  1000022  1    1    2    0    0 -2.7182667713e+02 +4.5751784055e+02 -8.3677216294e+02 1.1655830751e+03 6.1252260000e+02 0.0000e+00 1.0000e+00
       21  1    1    2  502  501 +7.4782995983e+01 +2.0690511894e+01 +9.0723654617e+01 1.1937912413e+02 0.0000000000e+00 0.0000e+00 1.0000e+00
<mgrwt>
<rscale>  1 0.80758456E+03</rscale>
<asrwt>0</asrwt>
<pdfrwt beam="1">  1        3 0.97059524E-01 0.80758456E+03</pdfrwt>
<pdfrwt beam="2">  1       -3 0.22462374E+00 0.80758456E+03</pdfrwt>
<totfact> 0.25107336E-01</totfact>
</mgrwt>
</event>
<event>
 5      1 +1.8937969e-08 9.42672300e+02 7.81665300e-03 9.37375700e-02
        2 -1    0    0  502    0 +0.0000000000e+00 +0.0000000000e+00 +1.3572760061e+03 1.3572760061e+03 2.5000000000e-03 0.0000e+00 -1.0000e+00
       -2 -1    0    0    0  501 -0.0000000000e+00 -0.0000000000e+00 -1.3598720183e+03 1.3598720183e+03 2.5000000000e-03 0.0000e+00 1.0000e+00
  1000022  1    1    2    0    0 -8.1683824922e+01 -7.1044570415e+02 -9.5262886233e+02 1.3394368334e+03 6.1252260000e+02 0.0000e+00 1.0000e+00
  1000022  1    1    2    0    0 +1.2132008201e+02 +7.1562170790e+02 +9.4049120647e+02 1.3366153658e+03 6.1252260000e+02 0.0000e+00 -1.0000e+00
       21  1    1    2  502  501 -3.9636257084e+01 -5.1760037528e+00 +9.5416436472e+00 4.1095825262e+01 0.0000000000e+00 0.0000e+00 1.0000e+00
<mgrwt>
<rscale>  1 0.94267232E+03</rscale>
<asrwt>0</asrwt>
<pdfrwt beam="1">  1        2 0.20881169E+00 0.94267232E+03</pdfrwt>
<pdfrwt beam="2">  1       -2 0.20921108E+00 0.94267232E+03</pdfrwt>
<totfact> 0.17759245E+00</totfact>
</mgrwt>
</event>
<event>
 5      1 +1.8937969e-08 7.49052900e+02 7.81665300e-03 9.63683700e-02
       -3 -1    0    0    0  501 -0.0000000000e+00 +0.0000000000e+00 +7.4570267061e+02 7.4570267666e+02 9.5000000000e-02 0.0000e+00 -1.0000e+00
        3 -1    0    0  502    0 +0.0000000000e+00 -0.0000000000e+00 -1.0844584918e+03 1.0844584959e+03 9.5000000000e-02 0.0000e+00 -1.0000e+00
  1000022  1    1    2    0    0 +1.9573532668e+02 +3.8516955408e+02 +2.7124901073e+02 7.9713729359e+02 6.1252260000e+02 0.0000e+00 1.0000e+00
  1000022  1    1    2    0    0 -1.6455683659e+02 -3.9855898404e+02 -6.4187926192e+02 9.8646902568e+02 6.1252260000e+02 0.0000e+00 1.0000e+00
       21  1    1    2  502  501 -3.1178490095e+01 +1.3389429957e+01 +3.1874430026e+01 4.6554853330e+01 0.0000000000e+00 0.0000e+00 1.0000e+00
<mgrwt>
<rscale>  1 0.74905289E+03</rscale>
<asrwt>0</asrwt>
<pdfrwt beam="2">  1        3 0.16683977E+00 0.74905289E+03</pdfrwt>
<pdfrwt beam="1">  1       -3 0.11472349E+00 0.74905289E+03</pdfrwt>
<totfact> 0.39895172E-01</totfact>
</mgrwt>
</event>
<event>
 5      1 +1.8937969e-08 6.42095900e+02 7.81665300e-03 9.82172500e-02
        3 -1    0    0  502    0 -0.0000000000e+00 +0.0000000000e+00 +1.9318336362e+03 1.9318336385e+03 9.5000000000e-02 0.0000e+00 -1.0000e+00
       21 -1    0    0  501  502 +0.0000000000e+00 -0.0000000000e+00 -1.1462703228e+03 1.1462703228e+03 0.0000000000e+00 0.0000e+00 1.0000e+00
  1000022  1    1    2    0    0 +9.2258404677e+01 +1.3155489362e+02 +1.3488485812e+03 1.4900989006e+03 6.1252260000e+02 0.0000e+00 1.0000e+00
  1000022  1    1    2    0    0 -2.4630176827e+01 -3.3155842495e+02 +2.5560867122e+02 7.4233238046e+02 6.1252260000e+02 0.0000e+00 1.0000e+00
        3  1    1    2  501    0 -6.7628227850e+01 +2.0000353133e+02 -8.1889393902e+02 8.4567268026e+02 9.5000000000e-02 0.0000e+00 1.0000e+00
<mgrwt>
<rscale>  1 0.64209588E+03</rscale>
<asrwt>0</asrwt>
<pdfrwt beam="2">  1       21 0.17634928E+00 0.64209588E+03</pdfrwt>
<pdfrwt beam="1">  1        3 0.29720518E+00 0.64209588E+03</pdfrwt>
<totfact> 0.33689034E-01</totfact>
</mgrwt>
</event>
<event>
 5      1 +1.8937969e-08 8.42798100e+02 7.81665300e-03 9.50005400e-02
       -3 -1    0    0    0  501 -0.0000000000e+00 +0.0000000000e+00 +1.4225988874e+03 1.4225988906e+03 9.5000000000e-02 0.0000e+00 -1.0000e+00
        3 -1    0    0  502    0 +0.0000000000e+00 -0.0000000000e+00 -5.7178884097e+02 5.7178884887e+02 9.5000000000e-02 0.0000e+00 -1.0000e+00
  1000022  1    1    2    0    0 +2.1382806991e+01 +5.9463516099e+02 +1.3676702070e+02 8.6483371384e+02 6.1252260000e+02 0.0000e+00 1.0000e+00
  1000022  1    1    2    0    0 -4.1803241643e+01 -5.5010138583e+02 +6.5536855052e+02 1.0531148647e+03 6.1252260000e+02 0.0000e+00 1.0000e+00
       21  1    1    2  502  501 +2.0420434652e+01 -4.4533775168e+01 +5.8674475240e+01 7.6439160950e+01 0.0000000000e+00 0.0000e+00 -1.0000e+00
<mgrwt>
<rscale>  1 0.84279810E+03</rscale>
<asrwt>0</asrwt>
<pdfrwt beam="2">  1        3 0.87967517E-01 0.84279810E+03</pdfrwt>
<pdfrwt beam="1">  1       -3 0.21886136E+00 0.84279810E+03</pdfrwt>
<totfact> 0.34035550E-01</totfact>
</mgrwt>
</event>
<event>
 5      1 +1.8937969e-08 7.26635300e+02 7.81665300e-03 9.67273600e-02
        4 -1    0    0  502    0 +0.0000000000e+00 +0.0000000000e+00 +7.4229555406e+02 7.4229664048e+02 1.2700000000e+00 0.0000e+00 -1.0000e+00
       -4 -1    0    0    0  501 -0.0000000000e+00 -0.0000000000e+00 -8.1167321662e+02 8.1167421019e+02 1.2700000000e+00 0.0000e+00 1.0000e+00
  1000022  1    1    2    0    0 -2.6410985268e+02 +2.8086991574e+02 -1.0153909991e+02 7.3084611798e+02 6.1252260000e+02 0.0000e+00 1.0000e+00
  1000022  1    1    2    0    0 +3.1985072174e+02 -2.4020650985e+02 -2.7251851785e+01 7.3207257189e+02 6.1252260000e+02 0.0000e+00 -1.0000e+00
       21  1    1    2  502  501 -5.5740869055e+01 -4.0663405886e+01 +5.9413289130e+01 9.1052160801e+01 0.0000000000e+00 0.0000e+00 1.0000e+00
<mgrwt>
<rscale>  1 0.72663529E+03</rscale>
<asrwt>0</asrwt>
<pdfrwt beam="1">  1        4 0.11419948E+00 0.72663529E+03</pdfrwt>
<pdfrwt beam="2">  1       -4 0.12487296E+00 0.72663529E+03</pdfrwt>
<totfact> 0.55961164E-01</totfact>
</mgrwt>
</event>
<event>
 5      1 +1.8937969e-08 8.38907000e+02 7.81665300e-03 9.50534800e-02
        3 -1    0    0  502    0 +0.0000000000e+00 +0.0000000000e+00 +1.4109359202e+03 1.4109359234e+03 9.5000000000e-02 0.0000e+00 1.0000e+00
       -3 -1    0    0    0  501 -0.0000000000e+00 -0.0000000000e+00 -7.5035442093e+02 7.5035442694e+02 9.5000000000e-02 0.0000e+00 1.0000e+00
  1000022  1    1    2    0    0 +4.9600037296e+02 -2.8217654218e+02 +7.1195486278e+02 1.0989557011e+03 6.1252260000e+02 0.0000e+00 -1.0000e+00
  1000022  1    1    2    0    0 -4.7828230399e+02 +3.2661596358e+02 +1.4924577631e+02 8.5609005790e+02 6.1252260000e+02 0.0000e+00 -1.0000e+00
       21  1    1    2  502  501 -1.7718068961e+01 -4.4439421397e+01 -2.0061913986e+02 2.0624459125e+02 0.0000000000e+00 0.0000e+00 1.0000e+00
<mgrwt>
<rscale>  1 0.83890704E+03</rscale>
<asrwt>0</asrwt>
<pdfrwt beam="1">  1        3 0.21706706E+00 0.83890704E+03</pdfrwt>
<pdfrwt beam="2">  1       -3 0.11543914E+00 0.83890704E+03</pdfrwt>
<totfact> 0.18501109E-01</totfact>
</mgrwt>
</event>
<event>
 5      1 +1.8937969e-08 7.43450800e+02 7.81665300e-03 9.64568100e-02
       -3 -1    0    0    0  501 -0.0000000000e+00 +0.0000000000e+00 +9.5345296518e+02 9.5345296991e+02 9.5000000000e-02 0.0000e+00 1.0000e+00
        3 -1    0    0  502    0 +0.0000000000e+00 -0.0000000000e+00 -1.2351239645e+03 1.2351239681e+03 9.5000000000e-02 0.0000e+00 1.0000e+00
  1000022  1    1    2    0    0 +4.9284659480e+02 -1.1520688303e+02 +4.6493128489e+02 9.2060601078e+02 6.1252260000e+02 0.0000e+00 -1.0000e+00
  1000022  1    1    2    0    0 -1.3898348347e+02 +2.9776592775e+01 -6.1865297672e+02 8.8211025120e+02 6.1252260000e+02 0.0000e+00 -1.0000e+00
       21  1    1    2  502  501 -3.5386311133e+02 +8.5430290251e+01 -1.2794930747e+02 3.8586067607e+02 0.0000000000e+00 0.0000e+00 1.0000e+00
<mgrwt>
<rscale>  1 0.74345081E+03</rscale>
<asrwt>0</asrwt>
<pdfrwt beam="2">  1        3 0.19001907E+00 0.74345081E+03</pdfrwt>
<pdfrwt beam="1">  1       -3 0.14668507E+00 0.74345081E+03</pdfrwt>
<totfact> 0.15103669E-01</totfact>
</mgrwt>
</event>
<event>
 5      1 +1.8937969e-08 7.55631700e+02 7.81665300e-03 9.62655600e-02
       21 -1    0    0  501  502 +0.0000000000e+00 +0.0000000000e+00 +1.5241949071e+03 1.5241949071e+03 0.0000000000e+00 0.0000e+00 -1.0000e+00
       -3 -1    0    0    0  501 -0.0000000000e+00 -0.0000000000e+00 -1.2680600390e+03 1.2680600426e+03 9.5000000000e-02 0.0000e+00 1.0000e+00
  1000022  1    1    2    0    0 +1.1183142800e+02 +3.8413216986e+02 -7.0841548293e+02 1.0183811782e+03 6.1252260000e+02 0.0000e+00 -1.0000e+00
  1000022  1    1    2    0    0 +1.8494121208e+01 -5.8895734212e+02 +7.6657462272e+01 8.5338917581e+02 6.1252260000e+02 0.0000e+00 -1.0000e+00
       -3  1    1    2    0  502 -1.3032554921e+02 +2.0482517226e+02 +8.8789288867e+02 9.2048459561e+02 9.5000000000e-02 0.0000e+00 -1.0000e+00
<mgrwt>
<rscale>  1 0.75563174E+03</rscale>
<asrwt>0</asrwt>
<pdfrwt beam="1">  1       21 0.23449153E+00 0.75563174E+03</pdfrwt>
<pdfrwt beam="2">  1       -3 0.19508616E+00 0.75563174E+03</pdfrwt>
<totfact> 0.50894425E-01</totfact>
</mgrwt>
</event>
<event>
 5      1 +1.8937969e-08 8.22166200e+02 7.81665300e-03 9.52847500e-02
       -3 -1    0    0    0  501 -0.0000000000e+00 +0.0000000000e+00 +7.7003105480e+02 7.7003106066e+02 9.5000000000e-02 0.0000e+00 -1.0000e+00
        3 -1    0    0  502    0 +0.0000000000e+00 -0.0000000000e+00 -1.2988965832e+03 1.2988965867e+03 9.5000000000e-02 0.0000e+00 -1.0000e+00
  1000022  1    1    2    0    0 -3.6796369256e+02 -3.8558780834e+02 +1.7470942178e+02 8.3053148920e+02 6.1252260000e+02 0.0000e+00 1.0000e+00
  1000022  1    1    2    0    0 +3.3887520739e+02 +4.7686701897e+02 -4.3280877856e+02 9.5118133617e+02 6.1252260000e+02 0.0000e+00 1.0000e+00
       21  1    1    2  502  501 +2.9088485165e+01 -9.1279210628e+01 -2.7076617161e+02 2.8721482195e+02 0.0000000000e+00 0.0000e+00 -1.0000e+00
<mgrwt>
<rscale>  1 0.82216617E+03</rscale>
<asrwt>0</asrwt>
<pdfrwt beam="2">  1        3 0.19983024E+00 0.82216617E+03</pdfrwt>
<pdfrwt beam="1">  1       -3 0.11846632E+00 0.82216617E+03</pdfrwt>
<totfact> 0.22214716E-01</totfact>
</mgrwt>
</event>
<event>
 5      1 +1.8937969e-08 8.71994700e+02 7.81665300e-03 9.46128300e-02
        3 -1    0    0  502    0 +0.0000000000e+00 +0.0000000000e+00 +4.6631286344e+02 4.6631287312e+02 9.5000000000e-02 0.0000e+00 1.0000e+00
       -3 -1    0    0    0  501 -0.0000000000e+00 -0.0000000000e+00 -1.8540169091e+03 1.8540169116e+03 9.5000000000e-02 0.0000e+00 1.0000e+00
  1000022  1    1    2    0    0 +4.6381602764e+02 -3.6605920922e+02 -5.4705191851e+02 1.0117185326e+03 6.1252260000e+02 0.0000e+00 1.0000e+00
  1000022  1    1    2    0    0 -5.1474974619e+02 +3.8806188354e+02 -8.7153100361e+02 1.2451142728e+03 6.1252260000e+02 0.0000e+00 1.0000e+00
       21  1    1    2  502  501 +5.0933718545e+01 -2.2002674322e+01 +3.0878876440e+01 6.3496979238e+01 0.0000000000e+00 0.0000e+00 1.0000e+00
<mgrwt>
<rscale>  1 0.87199471E+03</rscale>
<asrwt>0</asrwt>
<pdfrwt beam="1">  1        3 0.71740443E-01 0.87199471E+03</pdfrwt>
<pdfrwt beam="2">  1       -3 0.28523337E+00 0.87199471E+03</pdfrwt>
<totfact> 0.22213088E-01</totfact>
</mgrwt>
</event>
<event>
 5      1 +1.8937969e-08 6.46423800e+02 7.81665300e-03 9.81351300e-02
        2 -1    0    0  502    0 +0.0000000000e+00 +0.0000000000e+00 +2.4394217408e+03 2.4394217408e+03 2.5000000000e-03 0.0000e+00 -1.0000e+00
       -2 -1    0    0    0  501 -0.0000000000e+00 -0.0000000000e+00 -3.4959233912e+02 3.4959233913e+02 2.5000000000e-03 0.0000e+00 1.0000e+00
  1000022  1    1    2    0    0 +1.8394880281e+02 +1.0503654012e+02 +2.0069511864e+03 2.1090061254e+03 6.1252260000e+02 0.0000e+00 -1.0000e+00
  1000022  1    1    2    0    0 -1.4722128611e+02 -1.0021373686e+02 +7.7578072691e+01 6.4258788738e+02 6.1252260000e+02 0.0000e+00 1.0000e+00
       21  1    1    2  502  501 -3.6727516699e+01 -4.8228032670e+00 +5.3001425820e+00 3.7420067152e+01 0.0000000000e+00 0.0000e+00 1.0000e+00
<mgrwt>
<rscale>  1 0.64642376E+03</rscale>
<asrwt>0</asrwt>
<pdfrwt beam="1">  1        2 0.37529565E+00 0.64642376E+03</pdfrwt>
<pdfrwt beam="2">  1       -2 0.53783437E-01 0.64642376E+03</pdfrwt>
<totfact> 0.13088157E+01</totfact>
</mgrwt>
</event>
<event>
 5      1 +1.8937969e-08 7.10979000e+02 7.81665300e-03 9.69863900e-02
       -2 -1    0    0    0  501 -0.0000000000e+00 +0.0000000000e+00 +8.1621074699e+02 8.1621074699e+02 2.5000000000e-03 0.0000e+00 1.0000e+00
        2 -1    0    0  502    0 +0.0000000000e+00 -0.0000000000e+00 -1.6366309588e+03 1.6366309588e+03 2.5000000000e-03 0.0000e+00 -1.0000e+00
  1000022  1    1    2    0    0 +2.9714880727e+02 -2.1437061027e+02 -1.3370929842e+03 1.5156694086e+03 6.1252260000e+02 0.0000e+00 -1.0000e+00
  1000022  1    1    2    0    0 -2.1703480058e+02 +2.4697181286e+02 +4.6611729924e+02 8.3698772582e+02 6.1252260000e+02 0.0000e+00 1.0000e+00
       21  1    1    2  502  501 -8.0114006683e+01 -3.2601202596e+01 +5.0555473155e+01 1.0018457138e+02 0.0000000000e+00 0.0000e+00 -1.0000e+00
<mgrwt>
<rscale>  1 0.71097897E+03</rscale>
<asrwt>0</asrwt>
<pdfrwt beam="2">  1        2 0.25178938E+00 0.71097897E+03</pdfrwt>
<pdfrwt beam="1">  1       -2 0.12557088E+00 0.71097897E+03</pdfrwt>
<totfact> 0.52162920E+00</totfact>
</mgrwt>
</event>
<event>
 5      1 +1.8937969e-08 7.21841700e+02 7.81665300e-03 9.68059200e-02
       -3 -1    0    0    0  501 -0.0000000000e+00 +0.0000000000e+00 +1.1879692617e+03 1.1879692655e+03 9.5000000000e-02 0.0000e+00 -1.0000e+00
        3 -1    0    0  502    0 +0.0000000000e+00 -0.0000000000e+00 -8.2234749878e+02 8.2234750427e+02 9.5000000000e-02 0.0000e+00 -1.0000e+00
  1000022  1    1    2    0    0 -3.7878050742e+02 +2.2566060950e+01 -4.3114387277e+02 8.3967426687e+02 6.1252260000e+02 0.0000e+00 1.0000e+00
  1000022  1    1    2    0    0 +3.8807232622e+02 -4.9598114348e+01 +5.2307105965e+02 8.9545930800e+02 6.1252260000e+02 0.0000e+00 1.0000e+00
       21  1    1    2  502  501 -9.2918187964e+00 +2.7032053398e+01 +2.7369457607e+02 2.7518319494e+02 0.0000000000e+00 0.0000e+00 1.0000e+00
<mgrwt>
<rscale>  1 0.72184169E+03</rscale>
<asrwt>0</asrwt>
<pdfrwt beam="2">  1        3 0.12651500E+00 0.72184169E+03</pdfrwt>
<pdfrwt beam="1">  1       -3 0.18276450E+00 0.72184169E+03</pdfrwt>
<totfact> 0.24462432E-01</totfact>
</mgrwt>
</event>
<event>
 5      1 +1.8937969e-08 6.76863800e+02 7.81665300e-03 9.75763700e-02
       -1 -1    0    0    0  501 -0.0000000000e+00 +0.0000000000e+00 +3.6040541682e+02 3.6040541686e+02 5.0000000000e-03 0.0000e+00 1.0000e+00
        1 -1    0    0  502    0 +0.0000000000e+00 -0.0000000000e+00 -1.4021513929e+03 1.4021513929e+03 5.0000000000e-03 0.0000e+00 -1.0000e+00
  1000022  1    1    2    0    0 -3.0895110048e+01 -3.0367660556e+02 -6.0960739842e+02 9.1650373938e+02 6.1252260000e+02 0.0000e+00 -1.0000e+00
  1000022  1    1    2    0    0 +5.2494357923e+01 +2.6328718958e+02 -4.3864200460e+02 7.9979156380e+02 6.1252260000e+02 0.0000e+00 1.0000e+00
       21  1    1    2  502  501 -2.1599247874e+01 +4.0389415978e+01 +6.5034269166e+00 4.6261506606e+01 0.0000000000e+00 0.0000e+00 1.0000e+00
<mgrwt>
<rscale>  1 0.67686375E+03</rscale>
<asrwt>0</asrwt>
<pdfrwt beam="2">  1        1 0.21571560E+00 0.67686375E+03</pdfrwt>
<pdfrwt beam="1">  1       -1 0.55446988E-01 0.67686375E+03</pdfrwt>
<totfact> 0.26229881E+01</totfact>
</mgrwt>
</event>
<event>
 5      1 +1.8937969e-08 8.63914700e+02 7.81665300e-03 9.47184900e-02
       -3 -1    0    0    0  501 -0.0000000000e+00 +0.0000000000e+00 +4.2574696826e+03 4.2574696837e+03 9.5000000000e-02 0.0000e+00 -1.0000e+00
        3 -1    0    0  502    0 +0.0000000000e+00 -0.0000000000e+00 -2.2592503947e+02 2.2592505945e+02 9.5000000000e-02 0.0000e+00 -1.0000e+00
  1000022  1    1    2    0    0 +6.8668724976e+02 +4.0689723897e+01 +2.0264421156e+03 2.2259484756e+03 6.1252260000e+02 0.0000e+00 1.0000e+00
  1000022  1    1    2    0    0 -5.3875103124e+02 -7.3655498667e+01 +1.9107809893e+03 2.0789289865e+03 6.1252260000e+02 0.0000e+00 1.0000e+00
       21  1    1    2  502  501 -1.4793621852e+02 +3.2965774771e+01 +9.4321538178e+01 1.7851728101e+02 0.0000000000e+00 0.0000e+00 -1.0000e+00
<mgrwt>
<rscale>  1 0.86391474E+03</rscale>
<asrwt>0</asrwt>
<pdfrwt beam="2">  1        3 0.34757700E-01 0.86391474E+03</pdfrwt>
<pdfrwt beam="1">  1       -3 0.65499533E+00 0.86391474E+03</pdfrwt>
<totfact> 0.10178784E-02</totfact>
</mgrwt>
</event>
<event>
 5      1 +1.8937969e-08 8.69094800e+02 7.81665300e-03 9.54356500e-02
       -3 -1    0    0    0  501 -0.0000000000e+00 +0.0000000000e+00 +3.9535872210e+03 3.9535872222e+03 9.5000000000e-02 0.0000e+00 1.0000e+00
        3 -1    0    0  502    0 +0.0000000000e+00 -0.0000000000e+00 -4.4137814416e+02 4.4137815438e+02 9.5000000000e-02 0.0000e+00 1.0000e+00
  1000022  1    1    2    0    0 +1.3838727452e+02 -2.0480574394e+02 +2.4036891428e+02 7.0289229684e+02 6.1252260000e+02 0.0000e+00 -1.0000e+00
  1000022  1    1    2    0    0 -1.8189825120e+01 -5.4867243938e+02 +2.3813707234e+03 2.5194211186e+03 6.1252260000e+02 0.0000e+00 -1.0000e+00
       21  1    1    2  502  501 -1.2019744940e+02 +7.5347818332e+02 +8.9046943924e+02 1.1726519611e+03 0.0000000000e+00 0.0000e+00 1.0000e+00
<mgrwt>
<rscale>  1 0.81146740E+03</rscale>
<asrwt>0</asrwt>
<pdfrwt beam="2">  1        3 0.67904334E-01 0.86909482E+03</pdfrwt>
<pdfrwt beam="1">  1       -3 0.60824416E+00 0.86909482E+03</pdfrwt>
<totfact> 0.46237617E-03</totfact>
</mgrwt>
</event>
<event>
 5      1 +1.8937969e-08 9.99739600e+02 7.81665300e-03 9.41596100e-02
       -3 -1    0    0    0  501 -0.0000000000e+00 +0.0000000000e+00 +6.3704497030e+02 6.3704497738e+02 9.5000000000e-02 0.0000e+00 1.0000e+00
        3 -1    0    0  502    0 +0.0000000000e+00 -0.0000000000e+00 -3.0887537126e+03 3.0887537141e+03 9.5000000000e-02 0.0000e+00 1.0000e+00
  1000022  1    1    2    0    0 +2.9314291304e+02 -2.4169849690e+01 -1.3099917152e+03 1.4757300493e+03 6.1252260000e+02 0.0000e+00 -1.0000e+00
  1000022  1    1    2    0    0 -6.7320023148e+02 +6.6032378468e+02 -9.8002627614e+02 1.4915969595e+03 6.1252260000e+02 0.0000e+00 -1.0000e+00
       21  1    1    2  502  501 +3.8005731844e+02 -6.3615393499e+02 -1.6169075096e+02 7.5847168256e+02 0.0000000000e+00 0.0000e+00 -1.0000e+00
<mgrwt>
<rscale>  1 0.90773746E+03</rscale>
<asrwt>0</asrwt>
<pdfrwt beam="2">  1        3 0.47519287E+00 0.99973960E+03</pdfrwt>
<pdfrwt beam="1">  1       -3 0.98006921E-01 0.99973960E+03</pdfrwt>
<totfact> 0.10783525E-02</totfact>
</mgrwt>
</event>
<event>
 5      1 +1.8937969e-08 8.62974700e+02 7.81665300e-03 9.47308600e-02
       -3 -1    0    0    0  501 -0.0000000000e+00 +0.0000000000e+00 +2.7377036913e+03 2.7377036929e+03 9.5000000000e-02 0.0000e+00 -1.0000e+00
        3 -1    0    0  502    0 +0.0000000000e+00 -0.0000000000e+00 -6.2829648681e+02 6.2829649400e+02 9.5000000000e-02 0.0000e+00 -1.0000e+00
  1000022  1    1    2    0    0 +2.8867301115e+02 -5.5336374292e+02 +1.2399517872e+03 1.5173028404e+03 6.1252260000e+02 0.0000e+00 -1.0000e+00
  1000022  1    1    2    0    0 -2.6119073616e+02 +5.3164547385e+02 +1.2245739339e+03 1.4918554775e+03 6.1252260000e+02 0.0000e+00 -1.0000e+00
       21  1    1    2  502  501 -2.7482274987e+01 +2.1718269069e+01 -3.5511851665e+02 3.5684186907e+02 0.0000000000e+00 0.0000e+00 -1.0000e+00
<mgrwt>
<rscale>  1 0.86297468E+03</rscale>
<asrwt>0</asrwt>
<pdfrwt beam="2">  1        3 0.96660997E-01 0.86297468E+03</pdfrwt>
<pdfrwt beam="1">  1       -3 0.42118519E+00 0.86297468E+03</pdfrwt>
<totfact> 0.20214460E-02</totfact>
</mgrwt>
</event>
<event>
 5      1 +1.8937969e-08 7.15084900e+02 7.81665300e-03 9.69177700e-02
       21 -1    0    0  501  502 +0.0000000000e+00 +0.0000000000e+00 +3.2890520576e+02 3.2890520576e+02 0.0000000000e+00 0.0000e+00 1.0000e+00
        1 -1    0    0  502    0 -0.0000000000e+00 -0.0000000000e+00 -2.2007067656e+03 2.2007067656e+03 5.0000000000e-03 0.0000e+00 -1.0000e+00
  1000022  1    1    2    0    0 +3.4284177893e+02 -1.1760883615e+02 -5.3469761450e+02 8.9020098752e+02 6.1252260000e+02 0.0000e+00 1.0000e+00
  1000022  1    1    2    0    0 -3.2590456130e+02 +1.8401529397e+02 -1.3821267973e+03 1.5574125436e+03 6.1252260000e+02 0.0000e+00 -1.0000e+00
        1  1    1    2  501    0 -1.6937217634e+01 -6.6406457812e+01 +4.5022851988e+01 8.1998440268e+01 5.0000000000e-03 0.0000e+00 -1.0000e+00
<mgrwt>
<rscale>  1 0.71508493E+03</rscale>
<asrwt>0</asrwt>
<pdfrwt beam="1">  1       21 0.50600800E-01 0.71508493E+03</pdfrwt>
<pdfrwt beam="2">  1        1 0.33857028E+00 0.71508493E+03</pdfrwt>
<totfact> 0.84259822E+01</totfact>
</mgrwt>
</event>
<event>
 5      1 +1.8937969e-08 8.67831400e+02 7.81665300e-03 9.46671200e-02
       21 -1    0    0  501  502 +0.0000000000e+00 +0.0000000000e+00 +1.3068317307e+03 1.3068317307e+03 0.0000000000e+00 0.0000e+00 1.0000e+00
       -3 -1    0    0    0  501 -0.0000000000e+00 -0.0000000000e+00 -9.4896891147e+02 9.4896891623e+02 9.5000000000e-02 0.0000e+00 1.0000e+00
  1000022  1    1    2    0    0 +4.5488684896e+02 +1.0696831431e+02 +4.3335313765e+01 7.7163861396e+02 6.1252260000e+02 0.0000e+00 -1.0000e+00
  1000022  1    1    2    0    0 -7.4481988189e+02 -3.7542131263e+02 +1.1410077925e+02 1.0411055382e+03 6.1252260000e+02 0.0000e+00 -1.0000e+00
       -3  1    1    2    0  502 +2.8993303293e+02 +2.6845299833e+02 +2.0042672618e+02 4.4305649469e+02 9.5000000000e-02 0.0000e+00 -1.0000e+00
<mgrwt>
<rscale>  1 0.86783141E+03</rscale>
<asrwt>0</asrwt>
<pdfrwt beam="1">  1       21 0.20105104E+00 0.86783141E+03</pdfrwt>
<pdfrwt beam="2">  1       -3 0.14599522E+00 0.86783141E+03</pdfrwt>
<totfact> 0.18063110E+00</totfact>
</mgrwt>
</event>
<event>
 5      1 +1.8937969e-08 6.96021200e+02 7.81665300e-03 9.72406100e-02
       -2 -1    0    0    0  501 -0.0000000000e+00 +0.0000000000e+00 +3.5367485430e+02 3.5367485431e+02 2.5000000000e-03 0.0000e+00 1.0000e+00
        2 -1    0    0  502    0 +0.0000000000e+00 -0.0000000000e+00 -3.3429067992e+03 3.3429067992e+03 2.5000000000e-03 0.0000e+00 -1.0000e+00
  1000022  1    1    2    0    0 +2.9683997152e+02 -1.4556471130e+02 -1.5097512942e+02 7.1223625229e+02 6.1252260000e+02 0.0000e+00 1.0000e+00
  1000022  1    1    2    0    0 -2.8157650378e+02 +1.7349710983e+02 -2.8614858736e+03 2.9449400529e+03 6.1252260000e+02 0.0000e+00 -1.0000e+00
       21  1    1    2  502  501 -1.5263467740e+01 -2.7932398531e+01 +2.3229058144e+01 3.9405348334e+01 0.0000000000e+00 0.0000e+00 -1.0000e+00
<mgrwt>
<rscale>  1 0.69602121E+03</rscale>
<asrwt>0</asrwt>
<pdfrwt beam="2">  1        2 0.51429333E+00 0.69602121E+03</pdfrwt>
<pdfrwt beam="1">  1       -2 0.54411518E-01 0.69602121E+03</pdfrwt>
<totfact> 0.36195587E+00</totfact>
</mgrwt>
</event>
<event>
 5      1 +1.8937969e-08 7.79035900e+02 7.81665300e-03 9.59086800e-02
        3 -1    0    0  502    0 +0.0000000000e+00 +0.0000000000e+00 +7.0278538114e+02 7.0278538756e+02 9.5000000000e-02 0.0000e+00 -1.0000e+00
       -3 -1    0    0    0  501 -0.0000000000e+00 -0.0000000000e+00 -1.3314536370e+03 1.3314536404e+03 9.5000000000e-02 0.0000e+00 -1.0000e+00
  1000022  1    1    2    0    0 -1.7520794868e+02 -4.5809143482e+02 +2.1221126927e+02 8.1287338882e+02 6.1252260000e+02 0.0000e+00 1.0000e+00
  1000022  1    1    2    0    0 +1.1098085372e+02 +4.4639500530e+02 -6.0352917338e+02 9.7520082510e+02 6.1252260000e+02 0.0000e+00 1.0000e+00
       21  1    1    2  502  501 +6.4227094962e+01 +1.1696429523e+01 -2.3735035173e+02 2.4616481401e+02 0.0000000000e+00 0.0000e+00 -1.0000e+00
<mgrwt>
<rscale>  1 0.77903586E+03</rscale>
<asrwt>0</asrwt>
<pdfrwt beam="1">  1        3 0.10812083E+00 0.77903586E+03</pdfrwt>
<pdfrwt beam="2">  1       -3 0.20483902E+00 0.77903586E+03</pdfrwt>
<totfact> 0.25736370E-01</totfact>
</mgrwt>
</event>
<event>
 5      1 +1.8937969e-08 6.17215100e+02 7.81665300e-03 9.87032000e-02
        2 -1    0    0  502    0 +0.0000000000e+00 +0.0000000000e+00 +1.0546900421e+03 1.0546900421e+03 2.5000000000e-03 0.0000e+00 -1.0000e+00
       -2 -1    0    0    0  501 -0.0000000000e+00 -0.0000000000e+00 -6.9893874009e+02 6.9893874009e+02 2.5000000000e-03 0.0000e+00 1.0000e+00
  1000022  1    1    2    0    0 +2.0840602900e+01 +6.5994567191e+01 +7.1766568888e+02 9.4605369305e+02 6.1252260000e+02 0.0000e+00 -1.0000e+00
  1000022  1    1    2    0    0 -2.5760418252e+01 -9.8551785610e+01 -2.1513477633e+02 6.5714759460e+02 6.1252260000e+02 0.0000e+00 1.0000e+00
       21  1    1    2  502  501 +4.9198153514e+00 +3.2557218419e+01 -1.4677961052e+02 1.5042749456e+02 0.0000000000e+00 0.0000e+00 1.0000e+00
<mgrwt>
<rscale>  1 0.61721507E+03</rscale>
<asrwt>0</asrwt>
<pdfrwt beam="1">  1        2 0.16226001E+00 0.61721507E+03</pdfrwt>
<pdfrwt beam="2">  1       -2 0.10752904E+00 0.61721507E+03</pdfrwt>
<totfact> 0.16687101E+01</totfact>
</mgrwt>
</event>
<event>
 5      1 +1.8937969e-08 7.15501900e+02 7.81665300e-03 9.69108300e-02
       -1 -1    0    0    0  501 -0.0000000000e+00 +0.0000000000e+00 +6.2344158353e+02 6.2344158355e+02 5.0000000000e-03 0.0000e+00 1.0000e+00
        1 -1    0    0  502    0 +0.0000000000e+00 -0.0000000000e+00 -1.3944175651e+03 1.3944175651e+03 5.0000000000e-03 0.0000e+00 -1.0000e+00
  1000022  1    1    2    0    0 -3.6888842300e+02 +1.3337041856e+01 +1.6226545036e+02 7.3332841020e+02 6.1252260000e+02 0.0000e+00 1.0000e+00
  1000022  1    1    2    0    0 +3.7102765946e+02 +1.2729424983e+02 -8.5870013897e+02 1.1253511516e+03 6.1252260000e+02 0.0000e+00 -1.0000e+00
       21  1    1    2  502  501 -2.1392364544e+00 -1.4063129168e+02 -7.4541292963e+01 1.5917958691e+02 0.0000000000e+00 0.0000e+00 1.0000e+00
<mgrwt>
<rscale>  1 0.71550189E+03</rscale>
<asrwt>0</asrwt>
<pdfrwt beam="2">  1        1 0.21452578E+00 0.71550189E+03</pdfrwt>
<pdfrwt beam="1">  1       -1 0.95914090E-01 0.71550189E+03</pdfrwt>
<totfact> 0.84766672E+00</totfact>
</mgrwt>
</event>
<event>
 5      1 +1.8937969e-08 6.59691400e+02 7.81665300e-03 9.78876200e-02
       -2 -1    0    0    0  501 -0.0000000000e+00 +0.0000000000e+00 +8.0670399353e+02 8.0670399354e+02 2.5000000000e-03 0.0000e+00 1.0000e+00
        2 -1    0    0  502    0 +0.0000000000e+00 -0.0000000000e+00 -2.3308479437e+03 2.3308479437e+03 2.5000000000e-03 0.0000e+00 -1.0000e+00
  1000022  1    1    2    0    0 -2.3284451169e+02 -2.7292368085e+01 -2.0198419243e+03 2.1236541090e+03 6.1252260000e+02 0.0000e+00 -1.0000e+00
  1000022  1    1    2    0    0 +3.4134861430e+02 +1.2469174399e+02 +3.0733870110e+02 7.7569834356e+02 6.1252260000e+02 0.0000e+00 1.0000e+00
       21  1    1    2  502  501 -1.0850410260e+02 -9.7399375901e+01 +1.8835927310e+02 2.3819948461e+02 0.0000000000e+00 0.0000e+00 1.0000e+00
<mgrwt>
<rscale>  1 0.65969143E+03</rscale>
<asrwt>0</asrwt>
<pdfrwt beam="2">  1        2 0.35859199E+00 0.65969143E+03</pdfrwt>
<pdfrwt beam="1">  1       -2 0.12410831E+00 0.65969143E+03</pdfrwt>
<totfact> 0.22644518E+00</totfact>
</mgrwt>
</event>
<event>
 5      1 +1.8937969e-08 8.56414500e+02 7.81665300e-03 9.48176800e-02
       -3 -1    0    0    0  501 -0.0000000000e+00 +0.0000000000e+00 +1.6960063251e+03 1.6960063278e+03 9.5000000000e-02 0.0000e+00 -1.0000e+00
        3 -1    0    0  502    0 +0.0000000000e+00 -0.0000000000e+00 -4.6128003162e+02 4.6128004140e+02 9.5000000000e-02 0.0000e+00 -1.0000e+00
  1000022  1    1    2    0    0 -2.2907966437e+02 -5.6279079219e+02 +7.8757017180e+02 1.1681873477e+03 6.1252260000e+02 0.0000e+00 1.0000e+00
  1000022  1    1    2    0    0 +2.1628066864e+02 +5.4517847104e+02 +4.5902179907e+02 9.6430381128e+02 6.1252260000e+02 0.0000e+00 1.0000e+00
       21  1    1    2  502  501 +1.2798995724e+01 +1.7612321150e+01 -1.1865677369e+01 2.4795210168e+01 0.0000000000e+00 0.0000e+00 -1.0000e+00
<mgrwt>
<rscale>  1 0.85641450E+03</rscale>
<asrwt>0</asrwt>
<pdfrwt beam="2">  1        3 0.70966158E-01 0.85641450E+03</pdfrwt>
<pdfrwt beam="1">  1       -3 0.26092406E+00 0.85641450E+03</pdfrwt>
<totfact> 0.31226042E-01</totfact>
</mgrwt>
</event>
<event>
 5      1 +1.8937969e-08 8.58331400e+02 7.81665300e-03 9.47922300e-02
       -3 -1    0    0    0  501 -0.0000000000e+00 +0.0000000000e+00 +9.8657688772e+02 9.8657689229e+02 9.5000000000e-02 0.0000e+00 -1.0000e+00
        3 -1    0    0  502    0 +0.0000000000e+00 -0.0000000000e+00 -8.8489576590e+02 8.8489577100e+02 9.5000000000e-02 0.0000e+00 -1.0000e+00
  1000022  1    1    2    0    0 -2.0418262031e+02 -5.7792665593e+02 +7.1180909141e+01 8.6944834200e+02 6.1252260000e+02 0.0000e+00 1.0000e+00
  1000022  1    1    2    0    0 +1.6472907459e+02 +5.6906525040e+02 -1.0687349243e+02 8.5882291895e+02 6.1252260000e+02 0.0000e+00 1.0000e+00
       21  1    1    2  502  501 +3.9453545718e+01 +8.8614055343e+00 +1.3737370510e+02 1.4320140234e+02 0.0000000000e+00 0.0000e+00 -1.0000e+00
<mgrwt>
<rscale>  1 0.85833142E+03</rscale>
<asrwt>0</asrwt>
<pdfrwt beam="2">  1        3 0.13613781E+00 0.85833142E+03</pdfrwt>
<pdfrwt beam="1">  1       -3 0.15178106E+00 0.85833142E+03</pdfrwt>
<totfact> 0.33291877E-01</totfact>
</mgrwt>
</event>
<event>
 5      1 +1.8937969e-08 8.64551300e+02 7.81665300e-03 9.47101200e-02
        3 -1    0    0  502    0 +0.0000000000e+00 +0.0000000000e+00 +9.0821764581e+02 9.0821765078e+02 9.5000000000e-02 0.0000e+00 1.0000e+00
       -3 -1    0    0    0  501 -0.0000000000e+00 -0.0000000000e+00 -1.1264029265e+03 1.1264029305e+03 9.5000000000e-02 0.0000e+00 1.0000e+00
  1000022  1    1    2    0    0 +2.5218694174e+02 -5.2618727621e+02 +8.7238981871e+01 8.5045039755e+02 6.1252260000e+02 0.0000e+00 -1.0000e+00
  1000022  1    1    2    0    0 -3.0672767577e+02 +5.4489808853e+02 -4.8141830730e+02 9.9897112875e+02 6.1252260000e+02 0.0000e+00 -1.0000e+00
       21  1    1    2  502  501 +5.4540734029e+01 -1.8710812323e+01 +1.7599404476e+02 1.8519905496e+02 0.0000000000e+00 0.0000e+00 1.0000e+00
<mgrwt>
<rscale>  1 0.86455128E+03</rscale>
<asrwt>0</asrwt>
<pdfrwt beam="1">  1        3 0.13972579E+00 0.86455128E+03</pdfrwt>
<pdfrwt beam="2">  1       -3 0.17329276E+00 0.86455128E+03</pdfrwt>
<totfact> 0.21846266E-01</totfact>
</mgrwt>
</event>
<event>
 5      1 +1.8937969e-08 8.83455900e+02 7.81665300e-03 9.44650200e-02
       -3 -1    0    0    0  501 -0.0000000000e+00 +0.0000000000e+00 +1.3240604097e+03 1.3240604131e+03 9.5000000000e-02 0.0000e+00 1.0000e+00
        3 -1    0    0  502    0 +0.0000000000e+00 -0.0000000000e+00 -2.0470626392e+03 2.0470626414e+03 9.5000000000e-02 0.0000e+00 1.0000e+00
  1000022  1    1    2    0    0 -3.4527813576e+02 +5.5573680032e+02 -6.0992766991e+02 1.0840922840e+03 6.1252260000e+02 0.0000e+00 -1.0000e+00
  1000022  1    1    2    0    0 +6.5781956927e+02 -2.1877380460e+02 -9.5390034005e+02 1.3287958299e+03 6.1252260000e+02 0.0000e+00 -1.0000e+00
       21  1    1    2  502  501 -3.1254143351e+02 -3.3696299572e+02 +8.4082578050e+02 9.5823494055e+02 0.0000000000e+00 0.0000e+00 1.0000e+00
<mgrwt>
<rscale>  1 0.88345594E+03</rscale>
<asrwt>0</asrwt>
<pdfrwt beam="2">  1        3 0.31493272E+00 0.88345594E+03</pdfrwt>
<pdfrwt beam="1">  1       -3 0.20370160E+00 0.88345594E+03</pdfrwt>
<totfact> 0.11461735E-02</totfact>
</mgrwt>
</event>
<event>
 5      1 +1.8937969e-08 6.16669500e+02 7.81665300e-03 9.87141300e-02
       -3 -1    0    0    0  501 -0.0000000000e+00 +0.0000000000e+00 +3.6702069678e+02 3.6702070908e+02 9.5000000000e-02 0.0000e+00 1.0000e+00
        3 -1    0    0  502    0 +0.0000000000e+00 -0.0000000000e+00 -2.3485532840e+03 2.3485532859e+03 9.5000000000e-02 0.0000e+00 1.0000e+00
  1000022  1    1    2    0    0 +5.9953146309e+01 -6.1910238812e+01 -1.7952622649e+03 1.8988359046e+03 6.1252260000e+02 0.0000e+00 -1.0000e+00
  1000022  1    1    2    0    0 -5.5289436934e+01 +4.1487556782e+01 +1.2824689151e+01 6.1654403522e+02 6.1252260000e+02 0.0000e+00 -1.0000e+00
       21  1    1    2  502  501 -4.6637093751e+00 +2.0422682030e+01 -1.9909501150e+02 2.0019405518e+02 0.0000000000e+00 0.0000e+00 -1.0000e+00
<mgrwt>
<rscale>  1 0.61666945E+03</rscale>
<asrwt>0</asrwt>
<pdfrwt beam="2">  1        3 0.36131588E+00 0.61666945E+03</pdfrwt>
<pdfrwt beam="1">  1       -3 0.56464725E-01 0.61666945E+03</pdfrwt>
<totfact> 0.15057509E-01</totfact>
</mgrwt>
</event>
<event>
 5      1 +1.8937969e-08 7.68180100e+02 7.81665300e-03 9.60725300e-02
       -3 -1    0    0    0  501 -0.0000000000e+00 +0.0000000000e+00 +8.4434271437e+02 8.4434271971e+02 9.5000000000e-02 0.0000e+00 1.0000e+00
        3 -1    0    0  502    0 +0.0000000000e+00 -0.0000000000e+00 -9.5798424115e+02 9.5798424586e+02 9.5000000000e-02 0.0000e+00 1.0000e+00
  1000022  1    1    2    0    0 -2.5038553375e+02 +3.6253846737e+02 -4.9223057239e+02 9.0088952027e+02 6.1252260000e+02 0.0000e+00 -1.0000e+00
  1000022  1    1    2    0    0 +2.6128815638e+02 -3.9240648873e+02 +3.9231671591e+02 8.6680487664e+02 6.1252260000e+02 0.0000e+00 -1.0000e+00
       21  1    1    2  502  501 -1.0902622634e+01 +2.9868021360e+01 -1.3727670308e+01 3.4632568665e+01 0.0000000000e+00 0.0000e+00 -1.0000e+00
<mgrwt>
<rscale>  1 0.76818007E+03</rscale>
<asrwt>0</asrwt>
<pdfrwt beam="2">  1        3 0.14738219E+00 0.76818007E+03</pdfrwt>
<pdfrwt beam="1">  1       -3 0.12989888E+00 0.76818007E+03</pdfrwt>
<totfact> 0.40681119E-01</totfact>
</mgrwt>
</event>
<event>
 5      1 +1.8937969e-08 8.03349400e+02 7.81665300e-03 9.55518200e-02
       -3 -1    0    0    0  501 -0.0000000000e+00 +0.0000000000e+00 +6.6186647600e+02 6.6186648282e+02 9.5000000000e-02 0.0000e+00 1.0000e+00
        3 -1    0    0  502    0 +0.0000000000e+00 -0.0000000000e+00 -1.6492544602e+03 1.6492544629e+03 9.5000000000e-02 0.0000e+00 1.0000e+00
  1000022  1    1    2    0    0 -3.1134948332e+02 +2.3807821134e+02 +2.0896062370e+01 7.2748904900e+02 6.1252260000e+02 0.0000e+00 -1.0000e+00
  1000022  1    1    2    0    0 +5.8411317016e+02 -9.5350977509e+01 -9.3964075409e+02 1.2682226487e+03 6.1252260000e+02 0.0000e+00 -1.0000e+00
       21  1    1    2  502  501 -2.7276368684e+02 -1.4272723383e+02 -6.8643292448e+01 3.1540924801e+02 0.0000000000e+00 0.0000e+00 1.0000e+00
<mgrwt>
<rscale>  1 0.80334940E+03</rscale>
<asrwt>0</asrwt>
<pdfrwt beam="2">  1        3 0.25373145E+00 0.80334940E+03</pdfrwt>
<pdfrwt beam="1">  1       -3 0.10182561E+00 0.80334940E+03</pdfrwt>
<totfact> 0.15313624E-01</totfact>
</mgrwt>
</event>
<event>
 5      1 +1.8937969e-08 1.17424200e+03 7.81665300e-03 9.13570600e-02
       -1 -1    0    0    0  501 -0.0000000000e+00 +0.0000000000e+00 +7.3677737076e+02 7.3677737078e+02 5.0000000000e-03 0.0000e+00 1.0000e+00
        1 -1    0    0  502    0 +0.0000000000e+00 -0.0000000000e+00 -2.1707005361e+03 2.1707005361e+03 5.0000000000e-03 0.0000e+00 -1.0000e+00
  1000022  1    1    2    0    0 -5.4212834653e+02 +8.8338626065e+02 -3.2587401477e+02 1.2472578878e+03 6.1252260000e+02 0.0000e+00 1.0000e+00
  1000022  1    1    2    0    0 +5.4459843423e+02 -7.7529835546e+02 -1.0083451705e+03 1.5131486751e+03 6.1252260000e+02 0.0000e+00 -1.0000e+00
       21  1    1    2  502  501 -2.4700877016e+00 -1.0808790520e+02 -9.9703980058e+01 1.4707134399e+02 0.0000000000e+00 0.0000e+00 -1.0000e+00
<mgrwt>
<rscale>  1 0.11742420E+04</rscale>
<asrwt>0</asrwt>
<pdfrwt beam="2">  1        1 0.33395393E+00 0.11742420E+04</pdfrwt>
<pdfrwt beam="1">  1       -1 0.11335037E+00 0.11742420E+04</pdfrwt>
<totfact> 0.16038514E+00</totfact>
</mgrwt>
</event>
<event>
 5      1 +1.8937969e-08 8.65780200e+02 7.81665300e-03 9.46939900e-02
        3 -1    0    0  502    0 +0.0000000000e+00 +0.0000000000e+00 +5.9403623073e+02 5.9403623833e+02 9.5000000000e-02 0.0000e+00 -1.0000e+00
       -3 -1    0    0    0  501 -0.0000000000e+00 -0.0000000000e+00 -1.3854556989e+03 1.3854557021e+03 9.5000000000e-02 0.0000e+00 -1.0000e+00
  1000022  1    1    2    0    0 -5.7060451864e+02 -2.1558503103e+02 -2.3150869932e+02 8.9490034958e+02 6.1252260000e+02 0.0000e+00 1.0000e+00
  1000022  1    1    2    0    0 +5.6638146138e+02 +2.3850662613e+02 -4.6013778501e+02 9.8213241837e+02 6.1252260000e+02 0.0000e+00 1.0000e+00
       21  1    1    2  502  501 +4.2230572614e+00 -2.2921595096e+01 -9.9772983786e+01 1.0245917249e+02 0.0000000000e+00 0.0000e+00 1.0000e+00
<mgrwt>
<rscale>  1 0.86578019E+03</rscale>
<asrwt>0</asrwt>
<pdfrwt beam="1">  1        3 0.91390191E-01 0.86578019E+03</pdfrwt>
<pdfrwt beam="2">  1       -3 0.21314703E+00 0.86578019E+03</pdfrwt>
<totfact> 0.33726491E-01</totfact>
</mgrwt>
</event>
<event>
 5      1 +1.8937969e-08 7.93641300e+02 7.81665300e-03 9.56926700e-02
        2 -1    0    0  502    0 +0.0000000000e+00 +0.0000000000e+00 +1.9014595281e+03 1.9014595281e+03 2.5000000000e-03 0.0000e+00 -1.0000e+00
       -2 -1    0    0    0  501 -0.0000000000e+00 -0.0000000000e+00 -3.8099524156e+02 3.8099524157e+02 2.5000000000e-03 0.0000e+00 1.0000e+00
  1000022  1    1    2    0    0 +3.3873160984e+02 +4.1349918752e+02 +9.7827143200e+02 1.2719746899e+03 6.1252260000e+02 0.0000e+00 -1.0000e+00
  1000022  1    1    2    0    0 -3.1884933462e+02 -3.3709830629e+02 +5.2210228825e+02 9.2901824589e+02 6.1252260000e+02 0.0000e+00 1.0000e+00
       21  1    1    2  502  501 -1.9882275227e+01 -7.6400881233e+01 +2.0090566270e+01 8.1461833851e+01 0.0000000000e+00 0.0000e+00 -1.0000e+00
<mgrwt>
<rscale>  1 0.79364132E+03</rscale>
<asrwt>0</asrwt>
<pdfrwt beam="1">  1        2 0.29253223E+00 0.79364132E+03</pdfrwt>
<pdfrwt beam="2">  1       -2 0.58614653E-01 0.79364132E+03</pdfrwt>
<totfact> 0.21156758E+01</totfact>
</mgrwt>
</event>
<event>
 5      1 +1.8937969e-08 8.80085100e+02 7.81665300e-03 9.45082400e-02
       21 -1    0    0  501  502 +0.0000000000e+00 +0.0000000000e+00 +5.1846701442e+02 5.1846701442e+02 0.0000000000e+00 0.0000e+00 -1.0000e+00
        3 -1    0    0  502    0 -0.0000000000e+00 -0.0000000000e+00 -1.9652104039e+03 1.9652104062e+03 9.5000000000e-02 0.0000e+00 1.0000e+00
  1000022  1    1    2    0    0 -5.2712649985e+02 -2.2756965416e+02 -4.6443575898e+02 9.5944505005e+02 6.1252260000e+02 0.0000e+00 -1.0000e+00
  1000022  1    1    2    0    0 +6.3411789069e+02 +2.2231902741e+02 -1.0565345022e+03 1.3939082965e+03 6.1252260000e+02 0.0000e+00 -1.0000e+00
        3  1    1    2  501    0 -1.0699139084e+02 +5.2506267427e+00 +7.4226871635e+01 1.3032407411e+02 9.5000000000e-02 0.0000e+00 -1.0000e+00
<mgrwt>
<rscale>  1 0.88008507E+03</rscale>
<asrwt>0</asrwt>
<pdfrwt beam="1">  1       21 0.79764156E-01 0.88008507E+03</pdfrwt>
<pdfrwt beam="2">  1        3 0.30234006E+00 0.88008507E+03</pdfrwt>
<totfact> 0.23224270E+00</totfact>
</mgrwt>
</event>
<event>
 5      1 +1.8937969e-08 6.83251100e+02 7.81665300e-03 9.74631200e-02
        2 -1    0    0  502    0 -0.0000000000e+00 +0.0000000000e+00 +1.5767262694e+03 1.5767262694e+03 2.5000000000e-03 0.0000e+00 1.0000e+00
       21 -1    0    0  501  502 +0.0000000000e+00 -0.0000000000e+00 -7.0801300137e+02 7.0801300137e+02 0.0000000000e+00 0.0000e+00 -1.0000e+00
  1000022  1    1    2    0    0 -9.6954593543e+01 -2.7937278703e+02 -3.0121109627e+02 7.4388265699e+02 6.1252260000e+02 0.0000e+00 -1.0000e+00
  1000022  1    1    2    0    0 +7.0891816413e+01 +2.9572139602e+02 +1.2665898215e+03 1.4394132503e+03 6.1252260000e+02 0.0000e+00 1.0000e+00
        2  1    1    2  501    0 +2.6062777130e+01 -1.6348608988e+01 -9.6665457207e+01 1.0144336346e+02 2.5000000000e-03 0.0000e+00 1.0000e+00
<mgrwt>
<rscale>  1 0.68325111E+03</rscale>
<asrwt>0</asrwt>
<pdfrwt beam="2">  1       21 0.10892508E+00 0.68325111E+03</pdfrwt>
<pdfrwt beam="1">  1        2 0.24257327E+00 0.68325111E+03</pdfrwt>
<totfact> 0.84770347E+01</totfact>
</mgrwt>
</event>
<event>
 5      1 +1.8937969e-08 8.57855400e+02 7.81665300e-03 9.47985400e-02
        3 -1    0    0  502    0 +0.0000000000e+00 +0.0000000000e+00 +9.6472567721e+02 9.6472568188e+02 9.5000000000e-02 0.0000e+00 1.0000e+00
       -3 -1    0    0    0  501 -0.0000000000e+00 -0.0000000000e+00 -1.3520942365e+03 1.3520942398e+03 9.5000000000e-02 0.0000e+00 1.0000e+00
  1000022  1    1    2    0    0 -5.9247218956e+02 -5.2673721088e+01 -1.1429509665e+02 8.6142040893e+02 6.1252260000e+02 0.0000e+00 -1.0000e+00
  1000022  1    1    2    0    0 +5.9492547185e+02 +1.1258995265e+02 +2.7495490670e+02 9.0410007782e+02 6.1252260000e+02 0.0000e+00 -1.0000e+00
       21  1    1    2  502  501 -2.4532822934e+00 -5.9916231565e+01 -5.4802836930e+02 5.5129943494e+02 0.0000000000e+00 0.0000e+00 1.0000e+00
<mgrwt>
<rscale>  1 0.85785540E+03</rscale>
<asrwt>0</asrwt>
<pdfrwt beam="1">  1        3 0.14841934E+00 0.85785540E+03</pdfrwt>
<pdfrwt beam="2">  1       -3 0.20801450E+00 0.85785540E+03</pdfrwt>
<totfact> 0.11125529E-01</totfact>
</mgrwt>
</event>
<event>
 5      1 +1.8937969e-08 8.10881400e+02 7.81665300e-03 9.54439900e-02
        3 -1    0    0  502    0 +0.0000000000e+00 +0.0000000000e+00 +8.9174194669e+02 8.9174195175e+02 9.5000000000e-02 0.0000e+00 1.0000e+00
       -3 -1    0    0    0  501 -0.0000000000e+00 -0.0000000000e+00 -1.4241370641e+03 1.4241370673e+03 9.5000000000e-02 0.0000e+00 1.0000e+00
  1000022  1    1    2    0    0 -2.6559282381e+02 -6.1753261755e+02 -3.3931979428e+02 9.7067396179e+02 6.1252260000e+02 0.0000e+00 -1.0000e+00
  1000022  1    1    2    0    0 -2.0064419192e+01 +4.8662827290e+02 +2.3234612983e+02 8.1631998411e+02 6.1252260000e+02 0.0000e+00 -1.0000e+00
       21  1    1    2  502  501 +2.8565724300e+02 +1.3090434466e+02 -4.2542145300e+02 5.2888507316e+02 0.0000000000e+00 0.0000e+00 1.0000e+00
<mgrwt>
<rscale>  1 0.81088144E+03</rscale>
<asrwt>0</asrwt>
<pdfrwt beam="1">  1        3 0.13719107E+00 0.81088144E+03</pdfrwt>
<pdfrwt beam="2">  1       -3 0.21909801E+00 0.81088144E+03</pdfrwt>
<totfact> 0.11696821E-01</totfact>
</mgrwt>
</event>
<event>
 5      1 +1.8937969e-08 7.11937200e+02 7.81665300e-03 9.69703300e-02
       -2 -1    0    0    0  501 -0.0000000000e+00 +0.0000000000e+00 +2.1942275743e+02 2.1942275745e+02 2.5000000000e-03 0.0000e+00 1.0000e+00
        2 -1    0    0  502    0 +0.0000000000e+00 -0.0000000000e+00 -3.0424562220e+03 3.0424562220e+03 2.5000000000e-03 0.0000e+00 -1.0000e+00
  1000022  1    1    2    0    0 +3.0346563764e+02 +1.5287038143e+02 -1.8665437726e+03 1.9936474958e+03 6.1252260000e+02 0.0000e+00 -1.0000e+00
  1000022  1    1    2    0    0 -3.4454686253e+02 -1.4316569594e+02 -6.7930252293e+02 9.8784857652e+02 6.1252260000e+02 0.0000e+00 1.0000e+00
       21  1    1    2  502  501 +4.1081224890e+01 -9.7046854973e+00 -2.7718716905e+02 2.8038290719e+02 0.0000000000e+00 0.0000e+00 1.0000e+00
<mgrwt>
<rscale>  1 0.71193725E+03</rscale>
<asrwt>0</asrwt>
<pdfrwt beam="2">  1        2 0.46807016E+00 0.71193725E+03</pdfrwt>
<pdfrwt beam="1">  1       -2 0.33757349E-01 0.71193725E+03</pdfrwt>
<totfact> 0.14373252E+01</totfact>
</mgrwt>
</event>
<event>
 5      1 +1.8937969e-08 6.64256600e+02 7.81665300e-03 9.78038900e-02
        2 -1    0    0  502    0 +0.0000000000e+00 +0.0000000000e+00 +1.4883470497e+03 1.4883470497e+03 2.5000000000e-03 0.0000e+00 -1.0000e+00
       -2 -1    0    0    0  501 -0.0000000000e+00 -0.0000000000e+00 -7.3598009599e+02 7.3598009600e+02 2.5000000000e-03 0.0000e+00 1.0000e+00
  1000022  1    1    2    0    0 -8.7179079024e-01 +2.5660797867e+02 -4.7575010950e+02 8.1692748573e+02 6.1252260000e+02 0.0000e+00 1.0000e+00
  1000022  1    1    2    0    0 +2.0832492090e+01 -2.5986037587e+02 +1.2052639377e+03 1.3768828936e+03 6.1252260000e+02 0.0000e+00 -1.0000e+00
       21  1    1    2  502  501 -1.9960701300e+01 +3.2523971961e+00 +2.2853125499e+01 3.0516766359e+01 0.0000000000e+00 0.0000e+00 -1.0000e+00
<mgrwt>
<rscale>  1 0.66425657E+03</rscale>
<asrwt>0</asrwt>
<pdfrwt beam="1">  1        2 0.22897647E+00 0.66425657E+03</pdfrwt>
<pdfrwt beam="2">  1       -2 0.11322771E+00 0.66425657E+03</pdfrwt>
<totfact> 0.81917677E+00</totfact>
</mgrwt>
</event>
<event>
 5      1 +1.8937969e-08 7.53435700e+02 7.81665300e-03 9.62997600e-02
       -3 -1    0    0    0  501 -0.0000000000e+00 +0.0000000000e+00 +9.5189030446e+02 9.5189030920e+02 9.5000000000e-02 0.0000e+00 1.0000e+00
        3 -1    0    0  502    0 +0.0000000000e+00 -0.0000000000e+00 -8.4922033781e+02 8.4922034312e+02 9.5000000000e-02 0.0000e+00 1.0000e+00
  1000022  1    1    2    0    0 +4.2992865649e+02 +9.0029305628e+01 -4.2470700985e+02 8.6516120190e+02 6.1252260000e+02 0.0000e+00 -1.0000e+00
  1000022  1    1    2    0    0 -4.2347267404e+02 -1.0941268981e+02 +5.1623007890e+02 9.1267610477e+02 6.1252260000e+02 0.0000e+00 -1.0000e+00
       21  1    1    2  502  501 -6.4559824574e+00 +1.9383384180e+01 +1.1146897596e+01 2.3273345651e+01 0.0000000000e+00 0.0000e+00 1.0000e+00
<mgrwt>
<rscale>  1 0.75343573E+03</rscale>
<asrwt>0</asrwt>
<pdfrwt beam="2">  1        3 0.13064928E+00 0.75343573E+03</pdfrwt>
<pdfrwt beam="1">  1       -3 0.14644466E+00 0.75343573E+03</pdfrwt>
<totfact> 0.40777252E-01</totfact>
</mgrwt>
</event>
<event>
 5      1 +1.8937969e-08 8.68817200e+02 7.81665300e-03 9.46542300e-02
       -3 -1    0    0    0  501 -0.0000000000e+00 +0.0000000000e+00 +1.4328296079e+03 1.4328296110e+03 9.5000000000e-02 0.0000e+00 -1.0000e+00
        3 -1    0    0  502    0 +0.0000000000e+00 -0.0000000000e+00 -5.6027136529e+02 5.6027137334e+02 9.5000000000e-02 0.0000e+00 -1.0000e+00
  1000022  1    1    2    0    0 -6.2010896143e+02 +2.9951766831e+01 +3.1022563823e+02 9.2566522810e+02 6.1252260000e+02 0.0000e+00 1.0000e+00
  1000022  1    1    2    0    0 +6.1095191190e+02 +1.1144910284e+01 +5.3638925865e+02 1.0179802650e+03 6.1252260000e+02 0.0000e+00 1.0000e+00
       21  1    1    2  502  501 +9.1570495281e+00 -4.1096677115e+01 +2.5943345679e+01 4.9455491211e+01 0.0000000000e+00 0.0000e+00 -1.0000e+00
<mgrwt>
<rscale>  1 0.86881719E+03</rscale>
<asrwt>0</asrwt>
<pdfrwt beam="2">  1        3 0.86195597E-01 0.86881719E+03</pdfrwt>
<pdfrwt beam="1">  1       -3 0.22043532E+00 0.86881719E+03</pdfrwt>
<totfact> 0.34818991E-01</totfact>
</mgrwt>
</event>
<event>
 5      1 +1.8937969e-08 6.57099100e+02 7.81665300e-03 9.79354900e-02
       -3 -1    0    0    0  501 -0.0000000000e+00 +0.0000000000e+00 +5.1660187876e+02 5.1660188750e+02 9.5000000000e-02 0.0000e+00 1.0000e+00
        3 -1    0    0  502    0 +0.0000000000e+00 -0.0000000000e+00 -1.5252082813e+03 1.5252082842e+03 9.5000000000e-02 0.0000e+00 -1.0000e+00
  1000022  1    1    2    0    0 +2.0024940879e+02 +1.2113747735e+02 +1.0910794297e+02 6.6472745759e+02 6.1252260000e+02 0.0000e+00 1.0000e+00
  1000022  1    1    2    0    0 -2.2806030343e+02 -1.0458579839e+02 -7.1989103660e+02 9.7794515762e+02 6.1252260000e+02 0.0000e+00 -1.0000e+00
       21  1    1    2  502  501 +2.7810894639e+01 -1.6551678962e+01 -3.9782330887e+02 3.9913755651e+02 0.0000000000e+00 0.0000e+00 1.0000e+00
<mgrwt>
<rscale>  1 0.65709913E+03</rscale>
<asrwt>0</asrwt>
<pdfrwt beam="2">  1        3 0.23464743E+00 0.65709913E+03</pdfrwt>
<pdfrwt beam="1">  1       -3 0.79477214E-01 0.65709913E+03</pdfrwt>
<totfact> 0.35287748E-01</totfact>
</mgrwt>
</event>
<event>
 5      1 +1.8937969e-08 7.89301500e+02 7.81665300e-03 9.57563300e-02
        3 -1    0    0  502    0 +0.0000000000e+00 +0.0000000000e+00 +1.5104873595e+03 1.5104873625e+03 9.5000000000e-02 0.0000e+00 1.0000e+00
       -3 -1    0    0    0  501 -0.0000000000e+00 -0.0000000000e+00 -5.4497253930e+02 5.4497254758e+02 9.5000000000e-02 0.0000e+00 1.0000e+00
  1000022  1    1    2    0    0 -4.6531779455e+02 +1.4899363762e+02 +9.2081896087e+02 1.2090538649e+03 6.1252260000e+02 0.0000e+00 -1.0000e+00
  1000022  1    1    2    0    0 +4.9615842429e+02 -1.6063966954e+02 +6.5981196536e+01 8.0716524903e+02 6.1252260000e+02 0.0000e+00 -1.0000e+00
       21  1    1    2  502  501 -3.0840629738e+01 +1.1646031919e+01 -2.1285337215e+01 3.9240796150e+01 0.0000000000e+00 0.0000e+00 -1.0000e+00
<mgrwt>
<rscale>  1 0.78930153E+03</rscale>
<asrwt>0</asrwt>
<pdfrwt beam="1">  1        3 0.23238268E+00 0.78930153E+03</pdfrwt>
<pdfrwt beam="2">  1       -3 0.83841928E-01 0.78930153E+03</pdfrwt>
<totfact> 0.31898228E-01</totfact>
</mgrwt>
</event>
<event>
 5      1 +1.8937969e-08 8.19300200e+02 7.81665300e-03 9.53249300e-02
        1 -1    0    0  502    0 +0.0000000000e+00 +0.0000000000e+00 +7.9139629751e+02 7.9139629752e+02 5.0000000000e-03 0.0000e+00 -1.0000e+00
       -1 -1    0    0    0  501 -0.0000000000e+00 -0.0000000000e+00 -1.0962975346e+03 1.0962975346e+03 5.0000000000e-03 0.0000e+00 1.0000e+00
  1000022  1    1    2    0    0 -7.9145576940e+01 +4.9717968376e+02 +1.3500243212e+02 8.0427685064e+02 6.1252260000e+02 0.0000e+00 -1.0000e+00
  1000022  1    1    2    0    0 +1.6041522661e+02 -5.4284112094e+02 -5.0008471958e+02 9.7245986538e+02 6.1252260000e+02 0.0000e+00 1.0000e+00
       21  1    1    2  502  501 -8.1269649669e+01 +4.5661437189e+01 +6.0181050335e+01 1.1095711614e+02 0.0000000000e+00 0.0000e+00 -1.0000e+00
<mgrwt>
<rscale>  1 0.81930025E+03</rscale>
<asrwt>0</asrwt>
<pdfrwt beam="1">  1        1 0.12175328E+00 0.81930025E+03</pdfrwt>
<pdfrwt beam="2">  1       -1 0.16866116E+00 0.81930025E+03</pdfrwt>
<totfact> 0.58025850E+00</totfact>
</mgrwt>
</event>
<event>
 5      1 +1.8937969e-08 8.36836700e+02 7.81665300e-03 9.50817700e-02
        3 -1    0    0  502    0 +0.0000000000e+00 +0.0000000000e+00 +2.6415681880e+03 2.6415681897e+03 9.5000000000e-02 0.0000e+00 -1.0000e+00
       -3 -1    0    0    0  501 -0.0000000000e+00 -0.0000000000e+00 -4.1332678624e+02 4.1332679716e+02 9.5000000000e-02 0.0000e+00 -1.0000e+00
  1000022  1    1    2    0    0 -5.9669129204e+02 -9.6814303587e+01 +5.1763336973e+02 1.0042617927e+03 6.1252260000e+02 0.0000e+00 1.0000e+00
  1000022  1    1    2    0    0 +5.2309146612e+02 -1.9529494547e+02 +1.2192979100e+03 1.4743256515e+03 6.1252260000e+02 0.0000e+00 1.0000e+00
       21  1    1    2  502  501 +7.3599825921e+01 +2.9210924906e+02 +4.9131012201e+02 5.7630754268e+02 0.0000000000e+00 0.0000e+00 -1.0000e+00
<mgrwt>
<rscale>  1 0.83683667E+03</rscale>
<asrwt>0</asrwt>
<pdfrwt beam="1">  1        3 0.40639512E+00 0.83683667E+03</pdfrwt>
<pdfrwt beam="2">  1       -3 0.63588736E-01 0.83683667E+03</pdfrwt>
<totfact> 0.65640240E-02</totfact>
</mgrwt>
</event>
<event>
 5      1 +1.8937969e-08 7.55160900e+02 7.81665300e-03 9.62728800e-02
        1 -1    0    0  502    0 +0.0000000000e+00 +0.0000000000e+00 +2.8709136385e+02 2.8709136389e+02 5.0000000000e-03 0.0000e+00 -1.0000e+00
       -1 -1    0    0    0  501 -0.0000000000e+00 -0.0000000000e+00 -2.3845160791e+03 2.3845160791e+03 5.0000000000e-03 0.0000e+00 1.0000e+00
  1000022  1    1    2    0    0 -2.6415511134e+02 +3.8710799463e+02 -1.2727313681e+03 1.4881732404e+03 6.1252260000e+02 0.0000e+00 1.0000e+00
  1000022  1    1    2    0    0 +2.8709322952e+02 -3.1669664955e+02 -6.3702766471e+02 9.8168603504e+02 6.1252260000e+02 0.0000e+00 -1.0000e+00
       21  1    1    2  502  501 -2.2938118183e+01 -7.0411345082e+01 -1.8766568244e+02 2.0174816764e+02 0.0000000000e+00 0.0000e+00 1.0000e+00
<mgrwt>
<rscale>  1 0.75516087E+03</rscale>
<asrwt>0</asrwt>
<pdfrwt beam="1">  1        1 0.44167904E-01 0.75516087E+03</pdfrwt>
<pdfrwt beam="2">  1       -1 0.36684861E+00 0.75516087E+03</pdfrwt>
<totfact> 0.11825545E+00</totfact>
</mgrwt>
</event>
<event>
 5      1 +1.8937969e-08 6.39777000e+02 7.81665300e-03 9.82615300e-02
        3 -1    0    0  502    0 -0.0000000000e+00 +0.0000000000e+00 +7.0939568771e+02 7.0939569407e+02 9.5000000000e-02 0.0000e+00 -1.0000e+00
       21 -1    0    0  501  502 +0.0000000000e+00 -0.0000000000e+00 -1.9914670185e+03 1.9914670185e+03 0.0000000000e+00 0.0000e+00 -1.0000e+00
  1000022  1    1    2    0    0 +3.6521024324e+01 -1.6080660124e+02 +4.0219565242e+02 7.5109109072e+02 6.1252260000e+02 0.0000e+00 1.0000e+00
  1000022  1    1    2    0    0 +2.1828759104e+01 +2.9803857662e+02 -7.9086154249e+02 1.0440064189e+03 6.1252260000e+02 0.0000e+00 1.0000e+00
        3  1    1    2  501    0 -5.8349783428e+01 -1.3723197538e+02 -8.9340544077e+02 9.0576520297e+02 9.5000000000e-02 0.0000e+00 1.0000e+00
<mgrwt>
<rscale>  1 0.63977702E+03</rscale>
<asrwt>0</asrwt>
<pdfrwt beam="2">  1       21 0.30637953E+00 0.63977702E+03</pdfrwt>
<pdfrwt beam="1">  1        3 0.10913780E+00 0.63977702E+03</pdfrwt>
<totfact> 0.85568197E-01</totfact>
</mgrwt>
</event>
<event>
 5      1 +1.8937969e-08 6.77065100e+02 7.81665300e-03 9.75727800e-02
       -3 -1    0    0    0  501 -0.0000000000e+00 +0.0000000000e+00 +1.0271955676e+03 1.0271955720e+03 9.5000000000e-02 0.0000e+00 -1.0000e+00
        3 -1    0    0  502    0 +0.0000000000e+00 -0.0000000000e+00 -9.1964393030e+02 9.1964393521e+02 9.5000000000e-02 0.0000e+00 -1.0000e+00
  1000022  1    1    2    0    0 +5.8919126688e+01 -3.0983582886e+02 +6.7735952255e+02 9.6616228587e+02 6.1252260000e+02 0.0000e+00 1.0000e+00
  1000022  1    1    2    0    0 +2.8159578306e+01 +1.7710516545e+02 -4.7704558659e+02 7.9681593149e+02 6.1252260000e+02 0.0000e+00 1.0000e+00
       21  1    1    2  502  501 -8.7078704994e+01 +1.3273066341e+02 -9.2762298624e+01 1.8386128989e+02 0.0000000000e+00 0.0000e+00 1.0000e+00
<mgrwt>
<rscale>  1 0.67706506E+03</rscale>
<asrwt>0</asrwt>
<pdfrwt beam="2">  1        3 0.14148368E+00 0.67706506E+03</pdfrwt>
<pdfrwt beam="1">  1       -3 0.15803009E+00 0.67706506E+03</pdfrwt>
<totfact> 0.27512085E-01</totfact>
</mgrwt>
</event>
<event>
 5      1 +1.8937969e-08 6.57419000e+02 7.81665300e-03 9.79295700e-02
       -3 -1    0    0    0  501 -0.0000000000e+00 +0.0000000000e+00 +5.1109975423e+02 5.1109976306e+02 9.5000000000e-02 0.0000e+00 1.0000e+00
        3 -1    0    0  502    0 +0.0000000000e+00 -0.0000000000e+00 -1.7099852923e+03 1.7099852950e+03 9.5000000000e-02 0.0000e+00 1.0000e+00
  1000022  1    1    2    0    0 +1.0648020715e+02 -2.2345345404e+02 +1.6374172686e+02 6.8063556274e+02 6.1252260000e+02 0.0000e+00 -1.0000e+00
  1000022  1    1    2    0    0 -1.2919899506e+02 +1.5380189509e+02 -1.2033652416e+03 1.3651444039e+03 6.1252260000e+02 0.0000e+00 -1.0000e+00
       21  1    1    2  502  501 +2.2718787908e+01 +6.9651558949e+01 -1.5926202335e+02 1.7530509139e+02 0.0000000000e+00 0.0000e+00 1.0000e+00
<mgrwt>
<rscale>  1 0.65741905E+03</rscale>
<asrwt>0</asrwt>
<pdfrwt beam="2">  1        3 0.26307466E+00 0.65741905E+03</pdfrwt>
<pdfrwt beam="1">  1       -3 0.78630733E-01 0.65741905E+03</pdfrwt>
<totfact> 0.24909637E-01</totfact>
</mgrwt>
</event>
<event>
 5      1 +1.8937969e-08 1.91973800e+03 7.81665300e-03 8.64509300e-02
       -2 -1    0    0    0  501 -0.0000000000e+00 +0.0000000000e+00 +1.0658854758e+03 1.0658854758e+03 2.5000000000e-03 0.0000e+00 -1.0000e+00
        2 -1    0    0  502    0 +0.0000000000e+00 -0.0000000000e+00 -4.7065710472e+03 4.7065710472e+03 2.5000000000e-03 0.0000e+00 1.0000e+00
  1000022  1    1    2    0    0 -1.7784811596e+03 +2.5998734411e+01 -8.4910547395e+02 2.0639368233e+03 6.1252260000e+02 0.0000e+00 -1.0000e+00
  1000022  1    1    2    0    0 +1.8374305645e+03 -7.7096865756e+01 -2.9512065521e+03 3.5308496222e+03 6.1252260000e+02 0.0000e+00 1.0000e+00
       21  1    1    2  502  501 -5.8949404877e+01 +5.1098131344e+01 +1.5962645471e+02 1.7767007740e+02 0.0000000000e+00 0.0000e+00 -1.0000e+00
<mgrwt>
<rscale>  1 0.19197379E+04</rscale>
<asrwt>0</asrwt>
<pdfrwt beam="2">  1        2 0.72408784E+00 0.19197379E+04</pdfrwt>
<pdfrwt beam="1">  1       -2 0.16398238E+00 0.19197379E+04</pdfrwt>
<totfact> 0.16311409E-02</totfact>
</mgrwt>
</event>
<event>
 5      1 +1.8937969e-08 6.12611000e+02 7.81665300e-03 9.87958200e-02
       -3 -1    0    0    0  501 -0.0000000000e+00 +0.0000000000e+00 +4.4321146813e+02 4.4321147832e+02 9.5000000000e-02 0.0000e+00 1.0000e+00
        3 -1    0    0  502    0 +0.0000000000e+00 -0.0000000000e+00 -2.0163949728e+03 2.0163949750e+03 9.5000000000e-02 0.0000e+00 1.0000e+00
  1000022  1    1    2    0    0 -5.5877300280e+00 +1.1171104702e+01 +1.1920052177e+02 6.2413837905e+02 6.1252260000e+02 0.0000e+00 -1.0000e+00
  1000022  1    1    2    0    0 +4.0754728238e+01 +7.1010497732e+01 -1.5303674718e+03 1.6504278151e+03 6.1252260000e+02 0.0000e+00 -1.0000e+00
       21  1    1    2  502  501 -3.5166998210e+01 -8.2181602434e+01 -1.6201655459e+02 1.8504025914e+02 0.0000000000e+00 0.0000e+00 1.0000e+00
<mgrwt>
<rscale>  1 0.61261098E+03</rscale>
<asrwt>0</asrwt>
<pdfrwt beam="2">  1        3 0.31021461E+00 0.61261098E+03</pdfrwt>
<pdfrwt beam="1">  1       -3 0.68186382E-01 0.61261098E+03</pdfrwt>
<totfact> 0.18905379E-01</totfact>
</mgrwt>
</event>
<event>
 5      1 +1.8937969e-08 2.93076200e+03 7.81665300e-03 8.26378300e-02
        2 -1    0    0  502    0 -0.0000000000e+00 +0.0000000000e+00 +2.6707761405e+03 2.6707761405e+03 2.5000000000e-03 0.0000e+00 -1.0000e+00
       21 -1    0    0  501  502 +0.0000000000e+00 -0.0000000000e+00 -8.0401427992e+02 8.0401427992e+02 0.0000000000e+00 0.0000e+00 1.0000e+00
  1000022  1    1    2    0    0 +1.0316784973e+03 +1.8694241780e+02 +1.1271237990e+03 1.6567739686e+03 6.1252260000e+02 0.0000e+00 -1.0000e+00
  1000022  1    1    2    0    0 -1.1351756414e+03 -3.7688508937e+02 +3.7688984238e+02 1.3956704469e+03 6.1252260000e+02 0.0000e+00 1.0000e+00
        2  1    1    2  501    0 +1.0349714412e+02 +1.8994267158e+02 +3.6274821918e+02 4.2234600489e+02 2.5000000000e-03 0.0000e+00 -1.0000e+00
<mgrwt>
<rscale>  1 0.29307625E+04</rscale>
<asrwt>0</asrwt>
<pdfrwt beam="2">  1       21 0.12369451E+00 0.29307625E+04</pdfrwt>
<pdfrwt beam="1">  1        2 0.41088863E+00 0.29307625E+04</pdfrwt>
<totfact> 0.11139219E+01</totfact>
</mgrwt>
</event>
<event>
 5      1 +1.8937969e-08 6.18812000e+02 7.81665300e-03 9.86712800e-02
       -2 -1    0    0    0  501 -0.0000000000e+00 +0.0000000000e+00 +2.4559418228e+02 2.4559418229e+02 2.5000000000e-03 0.0000e+00 1.0000e+00
        2 -1    0    0  502    0 +0.0000000000e+00 -0.0000000000e+00 -2.3836955589e+03 2.3836955589e+03 2.5000000000e-03 0.0000e+00 -1.0000e+00
  1000022  1    1    2    0    0 -3.5888334211e+01 -7.4789024995e+01 -3.1747512458e+02 6.9487823468e+02 6.1252260000e+02 0.0000e+00 1.0000e+00
  1000022  1    1    2    0    0 +3.6112064779e+01 +9.9240330870e+01 -1.6721353854e+03 1.7839207962e+03 6.1252260000e+02 0.0000e+00 -1.0000e+00
       21  1    1    2  502  501 -2.2373056775e-01 -2.4451305875e+01 -1.4849086664e+02 1.5049071031e+02 0.0000000000e+00 0.0000e+00 1.0000e+00
<mgrwt>
<rscale>  1 0.61881196E+03</rscale>
<asrwt>0</asrwt>
<pdfrwt beam="2">  1        2 0.36672238E+00 0.61881196E+03</pdfrwt>
<pdfrwt beam="1">  1       -2 0.37783722E-01 0.61881196E+03</pdfrwt>
<totfact> 0.28535764E+01</totfact>
</mgrwt>
</event>
<event>
 5      1 +1.8937969e-08 7.20221400e+02 7.81665300e-03 9.68326200e-02
       -3 -1    0    0    0  501 -0.0000000000e+00 +0.0000000000e+00 +1.7070198035e+03 1.7070198062e+03 9.5000000000e-02 0.0000e+00 1.0000e+00
        3 -1    0    0  502    0 +0.0000000000e+00 -0.0000000000e+00 -4.7389199468e+02 4.7389200420e+02 9.5000000000e-02 0.0000e+00 1.0000e+00
  1000022  1    1    2    0    0 +2.0492148766e+02 -3.2232080378e+02 -1.7953354797e+01 7.2207324774e+02 6.1252260000e+02 0.0000e+00 -1.0000e+00
  1000022  1    1    2    0    0 -1.8584190999e+02 +3.2934795563e+02 +1.2440825825e+03 1.4373352772e+03 6.1252260000e+02 0.0000e+00 -1.0000e+00
       21  1    1    2  502  501 -1.9079577663e+01 -7.0271518550e+00 +6.9985811340e+00 2.1503285444e+01 0.0000000000e+00 0.0000e+00 1.0000e+00
<mgrwt>
<rscale>  1 0.72022144E+03</rscale>
<asrwt>0</asrwt>
<pdfrwt beam="2">  1        3 0.72906462E-01 0.72022144E+03</pdfrwt>
<pdfrwt beam="1">  1       -3 0.26261843E+00 0.72022144E+03</pdfrwt>
<totfact> 0.29121455E-01</totfact>
</mgrwt>
</event>
<event>
 5      1 +1.8937969e-08 7.56634500e+02 7.81665300e-03 9.62499900e-02
       -3 -1    0    0    0  501 -0.0000000000e+00 +0.0000000000e+00 +1.0499040918e+03 1.0499040961e+03 9.5000000000e-02 0.0000e+00 -1.0000e+00
        3 -1    0    0  502    0 +0.0000000000e+00 -0.0000000000e+00 -7.4427847605e+02 7.4427848211e+02 9.5000000000e-02 0.0000e+00 -1.0000e+00
  1000022  1    1    2    0    0 +4.3832881758e+02 +2.9745056202e+01 +5.9008486220e+02 9.5728835823e+02 6.1252260000e+02 0.0000e+00 1.0000e+00
  1000022  1    1    2    0    0 -4.5684525093e+02 -3.9940939535e+01 -2.7056443519e+02 8.1159836806e+02 6.1252260000e+02 0.0000e+00 1.0000e+00
       21  1    1    2  502  501 +1.8516433347e+01 +1.0195883333e+01 -1.3894811306e+01 2.5295851874e+01 0.0000000000e+00 0.0000e+00 -1.0000e+00
<mgrwt>
<rscale>  1 0.75663453E+03</rscale>
<asrwt>0</asrwt>
<pdfrwt beam="2">  1        3 0.11450438E+00 0.75663453E+03</pdfrwt>
<pdfrwt beam="1">  1       -3 0.16152371E+00 0.75663453E+03</pdfrwt>
<totfact> 0.43592224E-01</totfact>
</mgrwt>
</event>
<event>
 5      1 +1.8937969e-08 7.86937000e+02 7.81665300e-03 9.57912000e-02
       -1 -1    0    0    0  501 -0.0000000000e+00 +0.0000000000e+00 +7.9127002863e+02 7.9127002865e+02 5.0000000000e-03 0.0000e+00 -1.0000e+00
        1 -1    0    0  502    0 +0.0000000000e+00 -0.0000000000e+00 -1.0618610127e+03 1.0618610127e+03 5.0000000000e-03 0.0000e+00 -1.0000e+00
  1000022  1    1    2    0    0 +4.9480897476e+02 +1.1391105941e+02 -5.5408417808e+02 9.6953847931e+02 6.1252260000e+02 0.0000e+00 1.0000e+00
  1000022  1    1    2    0    0 -4.5229048084e+02 -8.9670341276e+01 +2.0933687936e+02 7.9474103564e+02 6.1252260000e+02 0.0000e+00 1.0000e+00
       21  1    1    2  502  501 -4.2518493922e+01 -2.4240718131e+01 +7.4156314652e+01 8.8851526400e+01 0.0000000000e+00 0.0000e+00 1.0000e+00
<mgrwt>
<rscale>  1 0.78693697E+03</rscale>
<asrwt>0</asrwt>
<pdfrwt beam="2">  1        1 0.16336323E+00 0.78693697E+03</pdfrwt>
<pdfrwt beam="1">  1       -1 0.12173385E+00 0.78693697E+03</pdfrwt>
<totfact> 0.83320820E+00</totfact>
</mgrwt>
</event>
<event>
 5      1 +1.8937969e-08 9.87893800e+02 7.81665300e-03 9.32192300e-02
       -1 -1    0    0    0  501 -0.0000000000e+00 +0.0000000000e+00 +8.2758227190e+02 8.2758227192e+02 5.0000000000e-03 0.0000e+00 1.0000e+00
        1 -1    0    0  502    0 +0.0000000000e+00 -0.0000000000e+00 -1.5849199039e+03 1.5849199039e+03 5.0000000000e-03 0.0000e+00 -1.0000e+00
  1000022  1    1    2    0    0 -4.8233250054e+02 -6.3728700081e+02 -9.1346131148e+02 1.3595495083e+03 6.1252260000e+02 0.0000e+00 -1.0000e+00
  1000022  1    1    2    0    0 +4.6792683363e+02 +6.0714878913e+02 +1.9635422718e+02 1.0006618269e+03 6.1252260000e+02 0.0000e+00 1.0000e+00
       21  1    1    2  502  501 +1.4405666907e+01 +3.0138211683e+01 -4.0230547659e+01 5.2290840569e+01 0.0000000000e+00 0.0000e+00 -1.0000e+00
<mgrwt>
<rscale>  1 0.98789379E+03</rscale>
<asrwt>0</asrwt>
<pdfrwt beam="2">  1        1 0.24383383E+00 0.98789379E+03</pdfrwt>
<pdfrwt beam="1">  1       -1 0.12732035E+00 0.98789379E+03</pdfrwt>
<totfact> 0.30783986E+00</totfact>
</mgrwt>
</event>
<event>
 5      1 +1.8937969e-08 7.21630400e+02 7.81665300e-03 9.68094000e-02
        2 -1    0    0  502    0 +0.0000000000e+00 +0.0000000000e+00 +1.5638118107e+03 1.5638118107e+03 2.5000000000e-03 0.0000e+00 -1.0000e+00
       -2 -1    0    0    0  501 -0.0000000000e+00 -0.0000000000e+00 -9.7982713816e+02 9.7982713816e+02 2.5000000000e-03 0.0000e+00 1.0000e+00
  1000022  1    1    2    0    0 -3.6110793917e+01 -3.8829817565e+02 +1.2987804696e+03 1.4879832346e+03 6.1252260000e+02 0.0000e+00 -1.0000e+00
  1000022  1    1    2    0    0 -1.1095265227e+01 +3.1467468018e+02 -6.1994942199e+02 9.2664150597e+02 6.1252260000e+02 0.0000e+00 1.0000e+00
       21  1    1    2  502  501 +4.7206059144e+01 +7.3623495465e+01 -9.4846375027e+01 1.2901420837e+02 0.0000000000e+00 0.0000e+00 1.0000e+00
<mgrwt>
<rscale>  1 0.72163042E+03</rscale>
<asrwt>0</asrwt>
<pdfrwt beam="1">  1        2 0.24058643E+00 0.72163042E+03</pdfrwt>
<pdfrwt beam="2">  1       -2 0.15074264E+00 0.72163042E+03</pdfrwt>
<totfact> 0.35684945E+00</totfact>
</mgrwt>
</event>
<event>
 5      1 +1.8937969e-08 8.39911300e+02 7.81665300e-03 9.50397900e-02
       -3 -1    0    0    0  501 -0.0000000000e+00 +0.0000000000e+00 +2.3614271375e+03 2.3614271394e+03 9.5000000000e-02 0.0000e+00 -1.0000e+00
        3 -1    0    0  502    0 +0.0000000000e+00 -0.0000000000e+00 -3.1755684857e+02 3.1755686278e+02 9.5000000000e-02 0.0000e+00 -1.0000e+00
  1000022  1    1    2    0    0 -5.2677381356e+02 -2.1213525946e+02 +7.5792531013e+02 1.1278859562e+03 6.1252260000e+02 0.0000e+00 1.0000e+00
  1000022  1    1    2    0    0 +5.4423270221e+02 +1.9905879545e+02 +1.2684182916e+03 1.5231160613e+03 6.1252260000e+02 0.0000e+00 1.0000e+00
       21  1    1    2  502  501 -1.7458888649e+01 +1.3076464012e+01 +1.7526687242e+01 2.7981984733e+01 0.0000000000e+00 0.0000e+00 1.0000e+00
<mgrwt>
<rscale>  1 0.83991126E+03</rscale>
<asrwt>0</asrwt>
<pdfrwt beam="2">  1        3 0.48854900E-01 0.83991126E+03</pdfrwt>
<pdfrwt beam="1">  1       -3 0.36329649E+00 0.83991126E+03</pdfrwt>
<totfact> 0.18690406E-01</totfact>
</mgrwt>
</event>
<event>
 5      1 +1.8937969e-08 8.89942500e+02 7.81665300e-03 9.43824200e-02
       -2 -1    0    0    0  501 -0.0000000000e+00 +0.0000000000e+00 +1.0273309792e+03 1.0273309792e+03 2.5000000000e-03 0.0000e+00 1.0000e+00
        2 -1    0    0  502    0 +0.0000000000e+00 -0.0000000000e+00 -1.7762268686e+03 1.7762268686e+03 2.5000000000e-03 0.0000e+00 -1.0000e+00
  1000022  1    1    2    0    0 -1.4301000816e+02 -6.1513429060e+02 -1.3216985006e+03 1.5877383033e+03 6.1252260000e+02 0.0000e+00 -1.0000e+00
  1000022  1    1    2    0    0 +1.5475372521e+02 +7.1804471273e+02 +5.6750166302e+02 1.1121056595e+03 6.1252260000e+02 0.0000e+00 1.0000e+00
       21  1    1    2  502  501 -1.1743717042e+01 -1.0291042214e+02 +5.3009480780e+00 1.0371388492e+02 0.0000000000e+00 0.0000e+00 -1.0000e+00
<mgrwt>
<rscale>  1 0.88994250E+03</rscale>
<asrwt>0</asrwt>
<pdfrwt beam="2">  1        2 0.27326567E+00 0.88994250E+03</pdfrwt>
<pdfrwt beam="1">  1       -2 0.15805092E+00 0.88994250E+03</pdfrwt>
<totfact> 0.23401235E+00</totfact>
</mgrwt>
</event>
<event>
 5      1 +1.8937969e-08 6.55494700e+02 7.81665300e-03 9.79652300e-02
       -2 -1    0    0    0  501 -0.0000000000e+00 +0.0000000000e+00 +1.3071792587e+03 1.3071792587e+03 2.5000000000e-03 0.0000e+00 1.0000e+00
        2 -1    0    0  502    0 +0.0000000000e+00 -0.0000000000e+00 -3.7512290733e+02 3.7512290734e+02 2.5000000000e-03 0.0000e+00 -1.0000e+00
  1000022  1    1    2    0    0 +4.8814404745e+01 -1.8777105914e+02 +3.6261341843e+02 7.3777587619e+02 6.1252260000e+02 0.0000e+00 -1.0000e+00
  1000022  1    1    2    0    0 -1.0500359055e+02 +2.4701844297e+02 +5.3270942294e+02 8.5498954964e+02 6.1252260000e+02 0.0000e+00 1.0000e+00
       21  1    1    2  502  501 +5.6189185805e+01 -5.9247383829e+01 +3.6733510014e+01 8.9536740224e+01 0.0000000000e+00 0.0000e+00 1.0000e+00
<mgrwt>
<rscale>  1 0.65549467E+03</rscale>
<asrwt>0</asrwt>
<pdfrwt beam="2">  1        2 0.57711215E-01 0.65549467E+03</pdfrwt>
<pdfrwt beam="1">  1       -2 0.20110451E+00 0.65549467E+03</pdfrwt>
<totfact> 0.11503429E+01</totfact>
</mgrwt>
</event>
<event>
 5      1 +1.8937969e-08 1.03303500e+03 7.81665300e-03 9.27303700e-02
       -2 -1    0    0    0  501 -0.0000000000e+00 +0.0000000000e+00 +6.4010747503e+02 6.4010747503e+02 2.5000000000e-03 0.0000e+00 -1.0000e+00
        2 -1    0    0  502    0 +0.0000000000e+00 -0.0000000000e+00 -3.0281214740e+03 3.0281214740e+03 2.5000000000e-03 0.0000e+00 1.0000e+00
  1000022  1    1    2    0    0 -2.9543233936e+02 +7.8081724309e+02 -8.5313881356e+01 1.0389505417e+03 6.1252260000e+02 0.0000e+00 -1.0000e+00
  1000022  1    1    2    0    0 +2.7371190228e+02 -7.7661238554e+02 -1.4507952863e+03 1.7770863516e+03 6.1252260000e+02 0.0000e+00 1.0000e+00
       21  1    1    2  502  501 +2.1720437082e+01 -4.2048575518e+00 -8.5190483135e+02 8.5219205575e+02 0.0000000000e+00 0.0000e+00 -1.0000e+00
<mgrwt>
<rscale>  1 0.10330348E+04</rscale>
<asrwt>0</asrwt>
<pdfrwt beam="2">  1        2 0.46586483E+00 0.10330348E+04</pdfrwt>
<pdfrwt beam="1">  1       -2 0.98478075E-01 0.10330348E+04</pdfrwt>
<totfact> 0.14533297E+00</totfact>
</mgrwt>
</event>
<event>
 5      1 +1.8937969e-08 9.13040300e+02 7.81665300e-03 9.40942600e-02
        3 -1    0    0  502    0 -0.0000000000e+00 +0.0000000000e+00 +7.0786423198e+02 7.0786423835e+02 9.5000000000e-02 0.0000e+00 -1.0000e+00
       21 -1    0    0  501  502 +0.0000000000e+00 -0.0000000000e+00 -1.7072137062e+03 1.7072137062e+03 0.0000000000e+00 0.0000e+00 -1.0000e+00
  1000022  1    1    2    0    0 +3.4291026936e+02 -6.3152016554e+02 -1.4946535604e+02 9.5599633916e+02 6.1252260000e+02 0.0000e+00 1.0000e+00
  1000022  1    1    2    0    0 -2.9102946083e+02 +5.5761771416e+02 -3.4037623790e+02 9.4163452627e+02 6.1252260000e+02 0.0000e+00 1.0000e+00
        3  1    1    2  501    0 -5.1880808530e+01 +7.3902451378e+01 -5.0950788026e+02 5.1744707912e+02 9.5000000000e-02 0.0000e+00 1.0000e+00
<mgrwt>
<rscale>  1 0.91304027E+03</rscale>
<asrwt>0</asrwt>
<pdfrwt beam="2">  1       21 0.26264826E+00 0.91304027E+03</pdfrwt>
<pdfrwt beam="1">  1        3 0.10890219E+00 0.91304027E+03</pdfrwt>
<totfact> 0.14817224E+00</totfact>
</mgrwt>
</event>
<event>
 5      1 +1.8937969e-08 7.72517100e+02 7.81665300e-03 9.60067200e-02
       21 -1    0    0  501  502 +0.0000000000e+00 +0.0000000000e+00 +3.9418687675e+02 3.9418687675e+02 0.0000000000e+00 0.0000e+00 1.0000e+00
        3 -1    0    0  502    0 -0.0000000000e+00 -0.0000000000e+00 -2.0283505456e+03 2.0283505478e+03 9.5000000000e-02 0.0000e+00 1.0000e+00
  1000022  1    1    2    0    0 -2.3069986668e+02 -4.3345388848e+02 -1.2464688529e+03 1.4730829028e+03 6.1252260000e+02 0.0000e+00 -1.0000e+00
  1000022  1    1    2    0    0 +1.5686384645e+02 +3.9434872202e+02 -2.4559891239e+02 7.8461451819e+02 6.1252260000e+02 0.0000e+00 -1.0000e+00
        3  1    1    2  501    0 +7.3836020235e+01 +3.9105166456e+01 -1.4209590356e+02 1.6484000353e+02 9.5000000000e-02 0.0000e+00 -1.0000e+00
<mgrwt>
<rscale>  1 0.77251708E+03</rscale>
<asrwt>0</asrwt>
<pdfrwt beam="1">  1       21 0.60644137E-01 0.77251708E+03</pdfrwt>
<pdfrwt beam="2">  1        3 0.31205392E+00 0.77251708E+03</pdfrwt>
<totfact> 0.39233654E+00</totfact>
</mgrwt>
</event>
<event>
 5      1 +1.8937969e-08 8.31638000e+02 7.81665300e-03 9.51531900e-02
       -3 -1    0    0    0  501 -0.0000000000e+00 +0.0000000000e+00 +1.3636816298e+03 1.3636816331e+03 9.5000000000e-02 0.0000e+00 1.0000e+00
        3 -1    0    0  502    0 +0.0000000000e+00 -0.0000000000e+00 -5.9580819458e+02 5.9580820215e+02 9.5000000000e-02 0.0000e+00 1.0000e+00
  1000022  1    1    2    0    0 +4.6996110813e+02 -2.8672130196e+02 +6.3661435020e+02 1.0409295435e+03 6.1252260000e+02 0.0000e+00 1.0000e+00
  1000022  1    1    2    0    0 -4.7177122308e+02 +3.4752860083e+02 +1.1376451100e+02 8.5526049529e+02 6.1252260000e+02 0.0000e+00 1.0000e+00
       21  1    1    2  502  501 +1.8101149540e+00 -6.0807298865e+01 +1.7494574006e+01 6.3299796453e+01 0.0000000000e+00 0.0000e+00 1.0000e+00
<mgrwt>
<rscale>  1 0.83163803E+03</rscale>
<asrwt>0</asrwt>
<pdfrwt beam="2">  1        3 0.91662801E-01 0.83163803E+03</pdfrwt>
<pdfrwt beam="1">  1       -3 0.20979717E+00 0.83163803E+03</pdfrwt>
<totfact> 0.35205069E-01</totfact>
</mgrwt>
</event>
<event>
 5      1 +1.8937969e-08 9.30928900e+02 7.81665300e-03 9.38772400e-02
        2 -1    0    0  502    0 +0.0000000000e+00 +0.0000000000e+00 +2.4419891424e+03 2.4419891424e+03 2.5000000000e-03 0.0000e+00 -1.0000e+00
       -2 -1    0    0    0  501 -0.0000000000e+00 -0.0000000000e+00 -8.4756364761e+02 8.4756364761e+02 2.5000000000e-03 0.0000e+00 1.0000e+00
  1000022  1    1    2    0    0 +6.9395198580e+02 -7.4237871934e+01 -4.4334788063e+02 1.0289907186e+03 6.1252260000e+02 0.0000e+00 1.0000e+00
  1000022  1    1    2    0    0 -7.1773967015e+02 +9.1422544858e+01 +1.9937707690e+03 2.2076716537e+03 6.1252260000e+02 0.0000e+00 -1.0000e+00
       21  1    1    2  502  501 +2.3787684357e+01 -1.7184672924e+01 +4.4002606393e+01 5.2890417657e+01 0.0000000000e+00 0.0000e+00 1.0000e+00
<mgrwt>
<rscale>  1 0.93092888E+03</rscale>
<asrwt>0</asrwt>
<pdfrwt beam="1">  1        2 0.37569063E+00 0.93092888E+03</pdfrwt>
<pdfrwt beam="2">  1       -2 0.13039441E+00 0.93092888E+03</pdfrwt>
<totfact> 0.16469244E+00</totfact>
</mgrwt>
</event>
<event>
 5      1 +1.8937969e-08 8.42562900e+02 7.81665300e-03 9.50037400e-02
        3 -1    0    0  502    0 +0.0000000000e+00 +0.0000000000e+00 +9.5644334175e+02 9.5644334647e+02 9.5000000000e-02 0.0000e+00 1.0000e+00
       -3 -1    0    0    0  501 -0.0000000000e+00 -0.0000000000e+00 -8.9972943782e+02 8.9972944284e+02 9.5000000000e-02 0.0000e+00 1.0000e+00
  1000022  1    1    2    0    0 +4.5957392583e+02 -3.2088568823e+02 +2.1916906399e+02 8.5871696870e+02 6.1252260000e+02 0.0000e+00 -1.0000e+00
  1000022  1    1    2    0    0 -5.5716986182e+02 +2.5564268253e+02 -1.3733447407e+02 8.7740305979e+02 6.1252260000e+02 0.0000e+00 -1.0000e+00
       21  1    1    2  502  501 +9.7595935991e+01 +6.5243005698e+01 -2.5120685985e+01 1.2005276081e+02 0.0000000000e+00 0.0000e+00 1.0000e+00
<mgrwt>
<rscale>  1 0.84256288E+03</rscale>
<asrwt>0</asrwt>
<pdfrwt beam="1">  1        3 0.14714513E+00 0.84256288E+03</pdfrwt>
<pdfrwt beam="2">  1       -3 0.13841991E+00 0.84256288E+03</pdfrwt>
<totfact> 0.34647175E-01</totfact>
</mgrwt>
</event>
<event>
 5      1 +1.8937969e-08 1.00993900e+03 7.81665300e-03 9.29771100e-02
       -2 -1    0    0    0  501 -0.0000000000e+00 +0.0000000000e+00 +4.6777387538e+02 4.6777387539e+02 2.5000000000e-03 0.0000e+00 1.0000e+00
        2 -1    0    0  502    0 +0.0000000000e+00 -0.0000000000e+00 -3.5220353343e+03 3.5220353343e+03 2.5000000000e-03 0.0000e+00 -1.0000e+00
  1000022  1    1    2    0    0 +3.0497841373e+02 +7.0055470719e+02 -2.3061174397e+03 2.5054241780e+03 6.1252260000e+02 0.0000e+00 -1.0000e+00
  1000022  1    1    2    0    0 -3.8785384990e+02 -8.4552375568e+02 -6.2763932707e+02 1.2784584822e+03 6.1252260000e+02 0.0000e+00 1.0000e+00
       21  1    1    2  502  501 +8.2875436178e+01 +1.4496904849e+02 -1.2050469211e+02 2.0592654944e+02 0.0000000000e+00 0.0000e+00 1.0000e+00
<mgrwt>
<rscale>  1 0.10099387E+04</rscale>
<asrwt>0</asrwt>
<pdfrwt beam="2">  1        2 0.54185157E+00 0.10099387E+04</pdfrwt>
<pdfrwt beam="1">  1       -2 0.71965214E-01 0.10099387E+04</pdfrwt>
<totfact> 0.14202202E+00</totfact>
</mgrwt>
</event>
<event>
 5      1 +1.8937969e-08 7.62016500e+02 7.81665300e-03 9.61668500e-02
       -2 -1    0    0    0  501 -0.0000000000e+00 +0.0000000000e+00 +5.3029643473e+02 5.3029643474e+02 2.5000000000e-03 0.0000e+00 1.0000e+00
        2 -1    0    0  502    0 +0.0000000000e+00 -0.0000000000e+00 -1.3611779665e+03 1.3611779665e+03 2.5000000000e-03 0.0000e+00 -1.0000e+00
  1000022  1    1    2    0    0 +2.7797821877e+02 +3.4207530884e+02 -3.1153085809e+02 8.1640848727e+02 6.1252260000e+02 0.0000e+00 1.0000e+00
  1000022  1    1    2    0    0 -3.0805172693e+02 -3.4525243498e+02 -6.0936697614e+02 9.8010568688e+02 6.1252260000e+02 0.0000e+00 -1.0000e+00
       21  1    1    2  502  501 +3.0073508167e+01 +3.1771261409e+00 +9.0016302455e+01 9.4960227104e+01 0.0000000000e+00 0.0000e+00 1.0000e+00
<mgrwt>
<rscale>  1 0.76201650E+03</rscale>
<asrwt>0</asrwt>
<pdfrwt beam="2">  1        2 0.20941199E+00 0.76201650E+03</pdfrwt>
<pdfrwt beam="1">  1       -2 0.81584068E-01 0.76201650E+03</pdfrwt>
<totfact> 0.20552098E+01</totfact>
</mgrwt>
</event>
<event>
 5      1 +1.8937969e-08 8.77828300e+02 7.81665300e-03 9.45373000e-02
       -3 -1    0    0    0  501 -0.0000000000e+00 +0.0000000000e+00 +4.9717607473e+02 4.9717608381e+02 9.5000000000e-02 0.0000e+00 1.0000e+00
        3 -1    0    0  502    0 +0.0000000000e+00 -0.0000000000e+00 -1.7236967913e+03 1.7236967939e+03 9.5000000000e-02 0.0000e+00 1.0000e+00
  1000022  1    1    2    0    0 +4.9298481458e+02 +3.9896932737e+02 -6.3058836647e+02 1.0839908556e+03 6.1252260000e+02 0.0000e+00 -1.0000e+00
  1000022  1    1    2    0    0 -5.3825063702e+02 -3.2044774350e+02 -5.5736132775e+02 1.0383814760e+03 6.1252260000e+02 0.0000e+00 -1.0000e+00
       21  1    1    2  502  501 +4.5265822442e+01 -7.8521583871e+01 -3.8571022337e+01 9.8500546085e+01 0.0000000000e+00 0.0000e+00 -1.0000e+00
<mgrwt>
<rscale>  1 0.87782833E+03</rscale>
<asrwt>0</asrwt>
<pdfrwt beam="2">  1        3 0.26518412E+00 0.87782833E+03</pdfrwt>
<pdfrwt beam="1">  1       -3 0.76488628E-01 0.87782833E+03</pdfrwt>
<totfact> 0.25266570E-01</totfact>
</mgrwt>
</event>
<event>
 5      1 +1.8937969e-08 8.56482000e+02 7.81665300e-03 9.48167800e-02
       21 -1    0    0  501  502 +0.0000000000e+00 +0.0000000000e+00 +1.3112417461e+03 1.3112417461e+03 0.0000000000e+00 0.0000e+00 -1.0000e+00
        3 -1    0    0  502    0 -0.0000000000e+00 -0.0000000000e+00 -7.5611624606e+02 7.5611625203e+02 9.5000000000e-02 0.0000e+00 -1.0000e+00
  1000022  1    1    2    0    0 -3.2921738710e+02 +6.3306352133e+02 +3.4179131801e+02 1.0005792076e+03 6.1252260000e+02 0.0000e+00 1.0000e+00
  1000022  1    1    2    0    0 +2.9243554597e+02 -4.3794256269e+02 +4.9381981442e+01 8.0928039168e+02 6.1252260000e+02 0.0000e+00 1.0000e+00
        3  1    1    2  501    0 +3.6781841128e+01 -1.9512095864e+02 +1.6395220060e+02 2.5749839892e+02 9.5000000000e-02 0.0000e+00 1.0000e+00
<mgrwt>
<rscale>  1 0.85648196E+03</rscale>
<asrwt>0</asrwt>
<pdfrwt beam="1">  1       21 0.20172950E+00 0.85648196E+03</pdfrwt>
<pdfrwt beam="2">  1        3 0.11632558E+00 0.85648196E+03</pdfrwt>
<totfact> 0.31753109E+00</totfact>
</mgrwt>
</event>
<event>
 5      1 +1.8937969e-08 8.20278700e+02 7.81665300e-03 9.53112000e-02
       21 -1    0    0  501  502 +0.0000000000e+00 +0.0000000000e+00 +7.4219198260e+02 7.4219198260e+02 0.0000000000e+00 0.0000e+00 -1.0000e+00
        3 -1    0    0  502    0 -0.0000000000e+00 -0.0000000000e+00 -1.0873913984e+03 1.0873914026e+03 9.5000000000e-02 0.0000e+00 -1.0000e+00
  1000022  1    1    2    0    0 +4.9386599627e+02 -2.0200773068e+02 -4.5008703655e+02 9.2869425621e+02 6.1252260000e+02 0.0000e+00 1.0000e+00
  1000022  1    1    2    0    0 -5.4270689020e+02 +1.7650141240e+02 +1.1445082122e+02 8.4496535031e+02 6.1252260000e+02 0.0000e+00 1.0000e+00
        3  1    1    2  501    0 +4.8840893923e+01 +2.5506318279e+01 -9.5632004897e+00 5.5923778663e+01 9.5000000000e-02 0.0000e+00 1.0000e+00
<mgrwt>
<rscale>  1 0.82027874E+03</rscale>
<asrwt>0</asrwt>
<pdfrwt beam="1">  1       21 0.11418338E+00 0.82027874E+03</pdfrwt>
<pdfrwt beam="2">  1        3 0.16729098E+00 0.82027874E+03</pdfrwt>
<totfact> 0.62551121E+00</totfact>
</mgrwt>
</event>
<event>
 5      1 +1.8937969e-08 8.53668700e+02 7.81665300e-03 9.48542600e-02
       -3 -1    0    0    0  501 -0.0000000000e+00 +0.0000000000e+00 +3.1767636646e+03 3.1767636661e+03 9.5000000000e-02 0.0000e+00 -1.0000e+00
        3 -1    0    0  502    0 +0.0000000000e+00 -0.0000000000e+00 -2.4587762354e+02 2.4587764189e+02 9.5000000000e-02 0.0000e+00 -1.0000e+00
  1000022  1    1    2    0    0 -2.4622140794e+02 -5.2854347158e+02 +1.1547231548e+03 1.4312765920e+03 6.1252260000e+02 0.0000e+00 1.0000e+00
  1000022  1    1    2    0    0 +2.3778680852e+02 +5.6280006529e+02 +1.7046368150e+03 1.9116111232e+03 6.1252260000e+02 0.0000e+00 1.0000e+00
       21  1    1    2  502  501 +8.4345994188e+00 -3.4256593716e+01 +7.1526071245e+01 7.9753592697e+01 0.0000000000e+00 0.0000e+00 1.0000e+00
<mgrwt>
<rscale>  1 0.85366867E+03</rscale>
<asrwt>0</asrwt>
<pdfrwt beam="2">  1        3 0.37827331E-01 0.85366867E+03</pdfrwt>
<pdfrwt beam="1">  1       -3 0.48873284E+00 0.85366867E+03</pdfrwt>
<totfact> 0.65269469E-02</totfact>
</mgrwt>
</event>
<event>
 5      1 +1.8937969e-08 8.63669000e+02 7.81665300e-03 9.47217200e-02
       -3 -1    0    0    0  501 -0.0000000000e+00 +0.0000000000e+00 +1.4431796854e+03 1.4431796885e+03 9.5000000000e-02 0.0000e+00 -1.0000e+00
       21 -1    0    0  501  502 +0.0000000000e+00 -0.0000000000e+00 -5.4973513836e+02 5.4973513836e+02 0.0000000000e+00 0.0000e+00 -1.0000e+00
  1000022  1    1    2    0    0 +5.2035748526e+02 -2.9125476325e+02 +2.8009778576e+02 8.9957765350e+02 6.1252260000e+02 0.0000e+00 1.0000e+00
  1000022  1    1    2    0    0 -5.4884019159e+02 +2.8445959020e+02 +6.1224340651e+02 1.0640341812e+03 6.1252260000e+02 0.0000e+00 1.0000e+00
       -3  1    1    2    0  502 +2.8482706333e+01 +6.7951730558e+00 +1.1033547807e+00 2.9302992231e+01 9.5000000000e-02 0.0000e+00 1.0000e+00
<mgrwt>
<rscale>  1 0.86366902E+03</rscale>
<asrwt>0</asrwt>
<pdfrwt beam="2">  1       21 0.84574637E-01 0.86366902E+03</pdfrwt>
<pdfrwt beam="1">  1       -3 0.22202764E+00 0.86366902E+03</pdfrwt>
<totfact> 0.57348676E+00</totfact>
</mgrwt>
</event>
<event>
 5      1 +1.8937969e-08 6.33167900e+02 7.81665300e-03 9.83888600e-02
       -1 -1    0    0    0  501 -0.0000000000e+00 +0.0000000000e+00 +8.8944018849e+02 8.8944018850e+02 5.0000000000e-03 0.0000e+00 1.0000e+00
        1 -1    0    0  502    0 +0.0000000000e+00 -0.0000000000e+00 -9.0349850908e+02 9.0349850910e+02 5.0000000000e-03 0.0000e+00 -1.0000e+00
  1000022  1    1    2    0    0 +6.1714893082e+01 -1.7648138688e+02 +5.4754463201e+02 8.4258143078e+02 6.1252260000e+02 0.0000e+00 1.0000e+00
  1000022  1    1    2    0    0 +8.8285403969e+00 +1.5717614615e+02 -5.9646939241e+02 8.6933420250e+02 6.1252260000e+02 0.0000e+00 -1.0000e+00
       21  1    1    2  502  501 -7.0543433479e+01 +1.9305240730e+01 +3.4866439805e+01 8.1023064317e+01 0.0000000000e+00 0.0000e+00 1.0000e+00
<mgrwt>
<rscale>  1 0.63316791E+03</rscale>
<asrwt>0</asrwt>
<pdfrwt beam="2">  1        1 0.13899977E+00 0.63316791E+03</pdfrwt>
<pdfrwt beam="1">  1       -1 0.13683695E+00 0.63316791E+03</pdfrwt>
<totfact> 0.84560127E+00</totfact>
</mgrwt>
</event>
<event>
 5      1 +1.8937969e-08 8.39530000e+02 7.81665300e-03 9.50449800e-02
       -3 -1    0    0    0  501 -0.0000000000e+00 +0.0000000000e+00 +3.9166614323e+02 3.9166615475e+02 9.5000000000e-02 0.0000e+00 1.0000e+00
        3 -1    0    0  502    0 +0.0000000000e+00 -0.0000000000e+00 -2.0920607243e+03 2.0920607265e+03 9.5000000000e-02 0.0000e+00 1.0000e+00
  1000022  1    1    2    0    0 +7.9010551268e+01 -5.6188684440e+02 -4.5385111965e+02 9.5032850501e+02 6.1252260000e+02 0.0000e+00 -1.0000e+00
  1000022  1    1    2    0    0 -7.2678047917e+01 +5.8170960557e+02 -1.1177344394e+03 1.4029192337e+03 6.1252260000e+02 0.0000e+00 -1.0000e+00
       21  1    1    2  502  501 -6.3325033514e+00 -1.9822761171e+01 -1.2880902206e+02 1.3047914248e+02 0.0000000000e+00 0.0000e+00 1.0000e+00
<mgrwt>
<rscale>  1 0.83952998E+03</rscale>
<asrwt>0</asrwt>
<pdfrwt beam="2">  1        3 0.32185549E+00 0.83952998E+03</pdfrwt>
<pdfrwt beam="1">  1       -3 0.60256332E-01 0.83952998E+03</pdfrwt>
<totfact> 0.20807066E-01</totfact>
</mgrwt>
</event>
<event>
 5      1 +1.8937969e-08 1.03118200e+03 7.81665300e-03 9.27499100e-02
        2 -1    0    0  502    0 +0.0000000000e+00 +0.0000000000e+00 +3.9081766269e+03 3.9081766269e+03 2.5000000000e-03 0.0000e+00 1.0000e+00
       -2 -1    0    0    0  501 -0.0000000000e+00 -0.0000000000e+00 -3.2700055081e+02 3.2700055081e+02 2.5000000000e-03 0.0000e+00 -1.0000e+00
  1000022  1    1    2    0    0 -1.3533317722e+02 +8.1794899800e+02 +1.0308586256e+03 1.4578096836e+03 6.1252260000e+02 0.0000e+00 -1.0000e+00
  1000022  1    1    2    0    0 +1.0514483855e+02 -8.2415633098e+02 +2.2500181272e+03 2.4754907802e+03 6.1252260000e+02 0.0000e+00 1.0000e+00
       21  1    1    2  502  501 +3.0188338668e+01 +6.2073329795e+00 +3.0029932335e+02 3.0187671387e+02 0.0000000000e+00 0.0000e+00 -1.0000e+00
<mgrwt>
<rscale>  1 0.10311823E+04</rscale>
<asrwt>0</asrwt>
<pdfrwt beam="1">  1        2 0.60125793E+00 0.10311823E+04</pdfrwt>
<pdfrwt beam="2">  1       -2 0.50307778E-01 0.10311823E+04</pdfrwt>
<totfact> 0.15825898E+00</totfact>
</mgrwt>
</event>
<event>
 5      1 +1.8937969e-08 7.58077800e+02 7.81665300e-03 9.62276200e-02
       -3 -1    0    0    0  501 -0.0000000000e+00 +0.0000000000e+00 +1.5830465033e+03 1.5830465061e+03 9.5000000000e-02 0.0000e+00 1.0000e+00
        3 -1    0    0  502    0 +0.0000000000e+00 -0.0000000000e+00 -5.0818840809e+02 5.0818841697e+02 9.5000000000e-02 0.0000e+00 1.0000e+00
  1000022  1    1    2    0    0 +9.0903517114e+00 +4.2101197804e+02 +4.6656565795e+01 7.4477814870e+02 6.1252260000e+02 0.0000e+00 -1.0000e+00
  1000022  1    1    2    0    0 -2.0389829171e+00 -4.5571130171e+02 +1.0548503399e+03 1.3021405926e+03 6.1252260000e+02 0.0000e+00 -1.0000e+00
       21  1    1    2  502  501 -7.0513687943e+00 +3.4699323671e+01 -2.6648810486e+01 4.4316181756e+01 0.0000000000e+00 0.0000e+00 1.0000e+00
<mgrwt>
<rscale>  1 0.75807775E+03</rscale>
<asrwt>0</asrwt>
<pdfrwt beam="2">  1        3 0.78182832E-01 0.75807775E+03</pdfrwt>
<pdfrwt beam="1">  1       -3 0.24354562E+00 0.75807775E+03</pdfrwt>
<totfact> 0.31958105E-01</totfact>
</mgrwt>
</event>
<event>
 5      1 +1.8937969e-08 1.31083900e+03 7.81665300e-03 9.19932100e-02
        1 -1    0    0  502    0 -0.0000000000e+00 +0.0000000000e+00 +3.6030038307e+03 3.6030038307e+03 5.0000000000e-03 0.0000e+00 -1.0000e+00
       21 -1    0    0  501  502 +0.0000000000e+00 -0.0000000000e+00 -7.5275223325e+02 7.5275223325e+02 0.0000000000e+00 0.0000e+00 -1.0000e+00
  1000022  1    1    2    0    0 -7.6148861135e+01 +2.4590336125e+02 +7.1687860142e+02 9.7742824638e+02 6.1252260000e+02 0.0000e+00 -1.0000e+00
  1000022  1    1    2    0    0 +6.3286311091e+02 +8.9810640216e+02 +6.2365609980e+02 1.4040091499e+03 6.1252260000e+02 0.0000e+00 -1.0000e+00
        1  1    1    2  501    0 -5.5671424977e+02 -1.1440097634e+03 +1.5097168963e+03 1.9743186677e+03 5.0000000000e-03 0.0000e+00 -1.0000e+00
<mgrwt>
<rscale>  1 0.11060435E+04</rscale>
<asrwt>0</asrwt>
<pdfrwt beam="2">  1       21 0.11580804E+00 0.13108385E+04</pdfrwt>
<pdfrwt beam="1">  1        1 0.55430827E+00 0.13108385E+04</pdfrwt>
<totfact> 0.10430018E+00</totfact>
</mgrwt>
</event>
<event>
 5      1 +1.8937969e-08 6.54763100e+02 7.81665300e-03 9.79788200e-02
       -1 -1    0    0    0  501 -0.0000000000e+00 +0.0000000000e+00 +9.6471399826e+02 9.6471399828e+02 5.0000000000e-03 0.0000e+00 1.0000e+00
        1 -1    0    0  502    0 +0.0000000000e+00 -0.0000000000e+00 -5.6305667660e+02 5.6305667662e+02 5.0000000000e-03 0.0000e+00 -1.0000e+00
  1000022  1    1    2    0    0 +1.3036244706e+02 -1.9467057364e+02 -1.1912755226e+02 6.6653305174e+02 6.1252260000e+02 0.0000e+00 -1.0000e+00
  1000022  1    1    2    0    0 -1.4892896297e+02 +1.6948002105e+02 +5.0918782518e+02 8.2786441545e+02 6.1252260000e+02 0.0000e+00 1.0000e+00
       21  1    1    2  502  501 +1.8566515909e+01 +2.5190552592e+01 +1.1597048748e+01 3.3373207706e+01 0.0000000000e+00 0.0000e+00 1.0000e+00
<mgrwt>
<rscale>  1 0.65476312E+03</rscale>
<asrwt>0</asrwt>
<pdfrwt beam="2">  1        1 0.86624105E-01 0.65476312E+03</pdfrwt>
<pdfrwt beam="1">  1       -1 0.14841754E+00 0.65476312E+03</pdfrwt>
<totfact> 0.14020552E+01</totfact>
</mgrwt>
</event>
<event>
 5      1 +1.8937969e-08 7.96429300e+02 7.81665300e-03 9.56520000e-02
       -2 -1    0    0    0  501 -0.0000000000e+00 +0.0000000000e+00 +1.0553528184e+03 1.0553528184e+03 2.5000000000e-03 0.0000e+00 1.0000e+00
        2 -1    0    0  502    0 +0.0000000000e+00 -0.0000000000e+00 -6.5863522210e+02 6.5863522210e+02 2.5000000000e-03 0.0000e+00 -1.0000e+00
  1000022  1    1    2    0    0 +5.1085039951e+02 -5.7683379127e+01 +3.0277732945e+02 8.5507517193e+02 6.1252260000e+02 0.0000e+00 -1.0000e+00
  1000022  1    1    2    0    0 -4.9553731295e+02 +8.9215020227e+01 +1.3565360816e+02 8.0442674326e+02 6.1252260000e+02 0.0000e+00 1.0000e+00
       21  1    1    2  502  501 -1.5313086562e+01 -3.1531641100e+01 -4.1713341298e+01 5.4486125324e+01 0.0000000000e+00 0.0000e+00 -1.0000e+00
<mgrwt>
<rscale>  1 0.79642932E+03</rscale>
<asrwt>0</asrwt>
<pdfrwt beam="2">  1        2 0.10132850E+00 0.79642932E+03</pdfrwt>
<pdfrwt beam="1">  1       -2 0.16236197E+00 0.79642932E+03</pdfrwt>
<totfact> 0.10822361E+01</totfact>
</mgrwt>
</event>
<event>
 5      1 +1.8937969e-08 6.96267000e+02 7.81665300e-03 9.72363800e-02
        3 -1    0    0  502    0 +0.0000000000e+00 +0.0000000000e+00 +1.3541630851e+03 1.3541630884e+03 9.5000000000e-02 0.0000e+00 -1.0000e+00
       -3 -1    0    0    0  501 -0.0000000000e+00 -0.0000000000e+00 -7.2337826090e+02 7.2337826714e+02 9.5000000000e-02 0.0000e+00 -1.0000e+00
  1000022  1    1    2    0    0 -3.0745641613e+02 -2.0124474850e+02 -3.3943898575e+02 7.9084237189e+02 6.1252260000e+02 0.0000e+00 1.0000e+00
  1000022  1    1    2    0    0 +1.7173024131e+02 +6.4169045969e+01 +8.3244088104e+02 1.0496431290e+03 6.1252260000e+02 0.0000e+00 1.0000e+00
       21  1    1    2  502  501 +1.3572617482e+02 +1.3707570253e+02 +1.3778292888e+02 2.3705585470e+02 0.0000000000e+00 0.0000e+00 -1.0000e+00
<mgrwt>
<rscale>  1 0.69626696E+03</rscale>
<asrwt>0</asrwt>
<pdfrwt beam="1">  1        3 0.20833278E+00 0.69626696E+03</pdfrwt>
<pdfrwt beam="2">  1       -3 0.11128896E+00 0.69626696E+03</pdfrwt>
<totfact> 0.23124752E-01</totfact>
</mgrwt>
</event>
<event>
 5      1 +1.8937969e-08 8.51120300e+02 7.81665300e-03 9.48883500e-02
        3 -1    0    0  502    0 +0.0000000000e+00 +0.0000000000e+00 +1.3981015864e+03 1.3981015897e+03 9.5000000000e-02 0.0000e+00 1.0000e+00
       -3 -1    0    0    0  501 -0.0000000000e+00 -0.0000000000e+00 -1.8477165664e+03 1.8477165688e+03 9.5000000000e-02 0.0000e+00 1.0000e+00
  1000022  1    1    2    0    0 +5.0044769083e+02 +3.0810583537e+02 +6.3899614337e+02 1.0624862841e+03 6.1252260000e+02 0.0000e+00 -1.0000e+00
  1000022  1    1    2    0    0 -5.1818367174e+02 -2.9506869496e+02 +2.1344340276e+02 8.8109129725e+02 6.1252260000e+02 0.0000e+00 -1.0000e+00
       21  1    1    2  502  501 +1.7735980908e+01 -1.3037140407e+01 -1.3020545261e+03 1.3022405772e+03 0.0000000000e+00 0.0000e+00 1.0000e+00
<mgrwt>
<rscale>  1 0.85112034E+03</rscale>
<asrwt>0</asrwt>
<pdfrwt beam="1">  1        3 0.21509255E+00 0.85112034E+03</pdfrwt>
<pdfrwt beam="2">  1       -3 0.28426409E+00 0.85112034E+03</pdfrwt>
<totfact> 0.14311629E-02</totfact>
</mgrwt>
</event>
<event>
 5      1 +1.8937969e-08 1.04554400e+03 7.81665300e-03 9.25995700e-02
       -2 -1    0    0    0  501 -0.0000000000e+00 +0.0000000000e+00 +1.0084353653e+03 1.0084353653e+03 2.5000000000e-03 0.0000e+00 -1.0000e+00
        2 -1    0    0  502    0 +0.0000000000e+00 -0.0000000000e+00 -1.4939367461e+03 1.4939367461e+03 2.5000000000e-03 0.0000e+00 1.0000e+00
  1000022  1    1    2    0    0 -2.0844112496e+02 -8.6116713766e+02 -8.0799541108e+02 1.3465129266e+03 6.1252260000e+02 0.0000e+00 1.0000e+00
  1000022  1    1    2    0    0 +1.4088912487e+02 +7.4284051880e+02 +2.6977826810e+02 1.0097653348e+03 6.1252260000e+02 0.0000e+00 -1.0000e+00
       21  1    1    2  502  501 +6.7552000091e+01 +1.1832661886e+02 +5.2715762213e+01 1.4609385009e+02 0.0000000000e+00 0.0000e+00 -1.0000e+00
<mgrwt>
<rscale>  1 0.10455439E+04</rscale>
<asrwt>0</asrwt>
<pdfrwt beam="2">  1        2 0.22983642E+00 0.10455439E+04</pdfrwt>
<pdfrwt beam="1">  1       -2 0.15514390E+00 0.10455439E+04</pdfrwt>
<totfact> 0.34593833E+00</totfact>
</mgrwt>
</event>
<event>
 5      1 +1.8937969e-08 7.22798800e+02 7.81665300e-03 9.67901800e-02
        3 -1    0    0  502    0 +0.0000000000e+00 +0.0000000000e+00 +9.8352990572e+02 9.8352991031e+02 9.5000000000e-02 0.0000e+00 1.0000e+00
       -3 -1    0    0    0  501 -0.0000000000e+00 -0.0000000000e+00 -1.0016713042e+03 1.0016713087e+03 9.5000000000e-02 0.0000e+00 1.0000e+00
  1000022  1    1    2    0    0 +3.5624714691e+02 +5.5332325976e+01 -4.1335945486e+02 8.2220658621e+02 6.1252260000e+02 0.0000e+00 -1.0000e+00
  1000022  1    1    2    0    0 -3.5620749205e+02 -1.6722469705e+02 +5.9085138756e+02 9.3762315159e+02 6.1252260000e+02 0.0000e+00 -1.0000e+00
       21  1    1    2  502  501 -3.9654855107e-02 +1.1189237108e+02 -1.9563333118e+02 2.2537148122e+02 0.0000000000e+00 0.0000e+00 1.0000e+00
<mgrwt>
<rscale>  1 0.72279882E+03</rscale>
<asrwt>0</asrwt>
<pdfrwt beam="1">  1        3 0.15131229E+00 0.72279882E+03</pdfrwt>
<pdfrwt beam="2">  1       -3 0.15410328E+00 0.72279882E+03</pdfrwt>
<totfact> 0.24641104E-01</totfact>
</mgrwt>
</event>
<event>
 5      1 +1.8937969e-08 8.44692700e+02 7.81665300e-03 9.49748800e-02
       -3 -1    0    0    0  501 -0.0000000000e+00 +0.0000000000e+00 +4.7365785741e+02 4.7365786694e+02 9.5000000000e-02 0.0000e+00 -1.0000e+00
        3 -1    0    0  502    0 +0.0000000000e+00 -0.0000000000e+00 -2.0315287628e+03 2.0315287650e+03 9.5000000000e-02 0.0000e+00 -1.0000e+00
  1000022  1    1    2    0    0 +5.1662709773e+02 -2.3400968277e+02 -8.7227525802e+02 1.2073575075e+03 6.1252260000e+02 0.0000e+00 1.0000e+00
  1000022  1    1    2    0    0 -5.2903211915e+02 +2.6125151519e+02 -2.8624145862e+02 8.9735469321e+02 6.1252260000e+02 0.0000e+00 1.0000e+00
       21  1    1    2  502  501 +1.2405021423e+01 -2.7241832420e+01 -3.9935418876e+02 4.0047443123e+02 0.0000000000e+00 0.0000e+00 -1.0000e+00
<mgrwt>
<rscale>  1 0.84469270E+03</rscale>
<asrwt>0</asrwt>
<pdfrwt beam="2">  1        3 0.31254288E+00 0.84469270E+03</pdfrwt>
<pdfrwt beam="1">  1       -3 0.72870442E-01 0.84469270E+03</pdfrwt>
<totfact> 0.15467636E-01</totfact>
</mgrwt>
</event>
<event>
 5      1 +1.8937969e-08 7.38836700e+02 7.81665300e-03 9.65302800e-02
       -2 -1    0    0    0  501 -0.0000000000e+00 +0.0000000000e+00 +5.2322022189e+02 5.2322022189e+02 2.5000000000e-03 0.0000e+00 1.0000e+00
        2 -1    0    0  502    0 +0.0000000000e+00 -0.0000000000e+00 -1.6117792901e+03 1.6117792901e+03 2.5000000000e-03 0.0000e+00 -1.0000e+00
  1000022  1    1    2    0    0 -3.7146776900e+02 -1.8204595846e+02 -1.1379537391e+03 1.3569272944e+03 6.1252260000e+02 0.0000e+00 -1.0000e+00
  1000022  1    1    2    0    0 +3.5439393696e+02 +2.1066077962e+02 +6.5145009561e+01 7.4121578127e+02 6.1252260000e+02 0.0000e+00 1.0000e+00
       21  1    1    2  502  501 +1.7073832040e+01 -2.8614821166e+01 -1.5750338653e+01 3.6856436325e+01 0.0000000000e+00 0.0000e+00 1.0000e+00
<mgrwt>
<rscale>  1 0.73883666E+03</rscale>
<asrwt>0</asrwt>
<pdfrwt beam="2">  1        2 0.24796604E+00 0.73883666E+03</pdfrwt>
<pdfrwt beam="1">  1       -2 0.80495420E-01 0.73883666E+03</pdfrwt>
<totfact> 0.15390887E+01</totfact>
</mgrwt>
</event>
<event>
 5      1 +1.8937969e-08 7.50893700e+02 7.81665300e-03 9.63394900e-02
       21 -1    0    0  501  502 +0.0000000000e+00 +0.0000000000e+00 +2.8103797971e+02 2.8103797971e+02 0.0000000000e+00 0.0000e+00 -1.0000e+00
        1 -1    0    0  502    0 -0.0000000000e+00 -0.0000000000e+00 -2.9512760931e+03 2.9512760931e+03 5.0000000000e-03 0.0000e+00 -1.0000e+00
  1000022  1    1    2    0    0 +4.5975697362e+00 +4.6523547770e+02 -5.4793337263e+02 9.4439404049e+02 6.1252260000e+02 0.0000e+00 1.0000e+00
  1000022  1    1    2    0    0 -1.1934370408e+01 -4.2427858022e+02 -2.1189550517e+03 2.2461765713e+03 6.1252260000e+02 0.0000e+00 1.0000e+00
        1  1    1    2  501    0 +7.3368006717e+00 -4.0956897475e+01 -3.3496890380e+00 4.1743461003e+01 5.0000000000e-03 0.0000e+00 1.0000e+00
<mgrwt>
<rscale>  1 0.75089373E+03</rscale>
<asrwt>0</asrwt>
<pdfrwt beam="1">  1       21 0.43236613E-01 0.75089373E+03</pdfrwt>
<pdfrwt beam="2">  1        1 0.45404247E+00 0.75089373E+03</pdfrwt>
<totfact> 0.35540001E+01</totfact>
</mgrwt>
</event>
<event>
 5      1 +1.8937969e-08 6.48875200e+02 7.81665300e-03 9.80889200e-02
        1 -1    0    0  502    0 +0.0000000000e+00 +0.0000000000e+00 +3.4367818222e+03 3.4367818222e+03 5.0000000000e-03 0.0000e+00 -1.0000e+00
       -1 -1    0    0    0  501 -0.0000000000e+00 -0.0000000000e+00 -1.4998208459e+02 1.4998208467e+02 5.0000000000e-03 0.0000e+00 1.0000e+00
  1000022  1    1    2    0    0 +1.8890911122e+02 -1.3059473858e+02 +1.0783933484e+03 1.2612921103e+03 6.1252260000e+02 0.0000e+00 1.0000e+00
  1000022  1    1    2    0    0 -1.4800375689e+02 +1.4509680750e+02 +2.1793094415e+03 2.2732205729e+03 6.1252260000e+02 0.0000e+00 -1.0000e+00
       21  1    1    2  502  501 -4.0905354327e+01 -1.4502068917e+01 +2.9096947711e+01 5.2251223733e+01 0.0000000000e+00 0.0000e+00 1.0000e+00
<mgrwt>
<rscale>  1 0.64887523E+03</rscale>
<asrwt>0</asrwt>
<pdfrwt beam="1">  1        1 0.52873560E+00 0.64887523E+03</pdfrwt>
<pdfrwt beam="2">  1       -1 0.23074170E-01 0.64887523E+03</pdfrwt>
<totfact> 0.49473077E+00</totfact>
</mgrwt>
</event>
<event>
 5      1 +1.8937969e-08 7.93602100e+02 7.81665300e-03 9.56932400e-02
        3 -1    0    0  502    0 +0.0000000000e+00 +0.0000000000e+00 +1.1394417802e+03 1.1394417841e+03 9.5000000000e-02 0.0000e+00 -1.0000e+00
       -3 -1    0    0    0  501 -0.0000000000e+00 -0.0000000000e+00 -7.1269269924e+02 7.1269270557e+02 9.5000000000e-02 0.0000e+00 -1.0000e+00
  1000022  1    1    2    0    0 -4.3614222276e+02 -2.3998201941e+02 +5.8622801843e+02 9.8318799485e+02 6.1252260000e+02 0.0000e+00 1.0000e+00
  1000022  1    1    2    0    0 +4.7668324936e+02 +2.1333534376e+02 -1.4191611316e+02 8.1735121448e+02 6.1252260000e+02 0.0000e+00 1.0000e+00
       21  1    1    2  502  501 -4.0541026595e+01 +2.6646675644e+01 -1.7562824325e+01 5.1595280390e+01 0.0000000000e+00 0.0000e+00 1.0000e+00
<mgrwt>
<rscale>  1 0.79360205E+03</rscale>
<asrwt>0</asrwt>
<pdfrwt beam="1">  1        3 0.17529874E+00 0.79360205E+03</pdfrwt>
<pdfrwt beam="2">  1       -3 0.10964503E+00 0.79360205E+03</pdfrwt>
<totfact> 0.38792697E-01</totfact>
</mgrwt>
</event>
<event>
 5      1 +1.8937969e-08 7.59137700e+02 7.81665300e-03 9.62112300e-02
        3 -1    0    0  502    0 +0.0000000000e+00 +0.0000000000e+00 +1.8364494022e+03 1.8364494046e+03 9.5000000000e-02 0.0000e+00 -1.0000e+00
       -3 -1    0    0    0  501 -0.0000000000e+00 -0.0000000000e+00 -6.8336268137e+02 6.8336268797e+02 9.5000000000e-02 0.0000e+00 -1.0000e+00
  1000022  1    1    2    0    0 +3.7050792152e+02 +1.1138518223e+02 +4.7612325085e+01 7.2603970121e+02 6.1252260000e+02 0.0000e+00 1.0000e+00
  1000022  1    1    2    0    0 -3.1469141633e+02 -3.6875633655e+02 +1.2643580274e+03 1.4862022339e+03 6.1252260000e+02 0.0000e+00 1.0000e+00
       21  1    1    2  502  501 -5.5816505193e+01 +2.5737115433e+02 -1.5888363167e+02 3.0757015743e+02 0.0000000000e+00 0.0000e+00 -1.0000e+00
<mgrwt>
<rscale>  1 0.75913770E+03</rscale>
<asrwt>0</asrwt>
<pdfrwt beam="1">  1        3 0.28253067E+00 0.75913770E+03</pdfrwt>
<pdfrwt beam="2">  1       -3 0.10513272E+00 0.75913770E+03</pdfrwt>
<totfact> 0.98447881E-02</totfact>
</mgrwt>
</event>
<event>
 5      1 +1.8937969e-08 7.60804600e+02 7.81665300e-03 9.61855000e-02
       -3 -1    0    0    0  501 -0.0000000000e+00 +0.0000000000e+00 +9.0071254256e+02 9.0071254757e+02 9.5000000000e-02 0.0000e+00 -1.0000e+00
        3 -1    0    0  502    0 +0.0000000000e+00 -0.0000000000e+00 -1.0786289116e+03 1.0786289158e+03 9.5000000000e-02 0.0000e+00 -1.0000e+00
  1000022  1    1    2    0    0 -3.7844161502e+02 -1.2196626351e+00 -4.1814026823e+02 8.3261321331e+02 6.1252260000e+02 0.0000e+00 1.0000e+00
  1000022  1    1    2    0    0 +4.6950161872e+02 +9.7611153658e+01 +4.4990078331e+02 8.9864028267e+02 6.1252260000e+02 0.0000e+00 1.0000e+00
       21  1    1    2  502  501 -9.1060003700e+01 -9.6391491023e+01 -2.0967688412e+02 2.4808796736e+02 0.0000000000e+00 0.0000e+00 1.0000e+00
<mgrwt>
<rscale>  1 0.76080460E+03</rscale>
<asrwt>0</asrwt>
<pdfrwt beam="2">  1        3 0.16594291E+00 0.76080460E+03</pdfrwt>
<pdfrwt beam="1">  1       -3 0.13857116E+00 0.76080460E+03</pdfrwt>
<totfact> 0.25325421E-01</totfact>
</mgrwt>
</event>
<event>
 5      1 +1.8937969e-08 8.44140100e+02 7.81665300e-03 9.49823600e-02
       21 -1    0    0  501  502 +0.0000000000e+00 +0.0000000000e+00 +1.8323696720e+03 1.8323696720e+03 0.0000000000e+00 0.0000e+00 -1.0000e+00
        3 -1    0    0  502    0 -0.0000000000e+00 -0.0000000000e+00 -7.7065096402e+02 7.7065096987e+02 9.5000000000e-02 0.0000e+00 1.0000e+00
  1000022  1    1    2    0    0 -5.0743727085e+02 +3.2099038578e+02 -1.6873351988e+02 8.7417523864e+02 6.1252260000e+02 0.0000e+00 -1.0000e+00
  1000022  1    1    2    0    0 +4.6724356398e+02 -2.7757472560e+02 +4.2755317792e+02 9.2376941486e+02 6.1252260000e+02 0.0000e+00 -1.0000e+00
        3  1    1    2  501    0 +4.0193706868e+01 -4.3415660180e+01 +8.0289904993e+02 8.0507598835e+02 9.5000000000e-02 0.0000e+00 -1.0000e+00
<mgrwt>
<rscale>  1 0.84414008E+03</rscale>
<asrwt>0</asrwt>
<pdfrwt beam="1">  1       21 0.28190303E+00 0.84414008E+03</pdfrwt>
<pdfrwt beam="2">  1        3 0.11856169E+00 0.84414008E+03</pdfrwt>
<totfact> 0.93097767E-01</totfact>
</mgrwt>
</event>
<event>
 5      1 +1.8937969e-08 7.08907100e+02 7.81665300e-03 9.70212000e-02
        3 -1    0    0  502    0 +0.0000000000e+00 +0.0000000000e+00 +3.5276280380e+02 3.5276281659e+02 9.5000000000e-02 0.0000e+00 -1.0000e+00
       -3 -1    0    0    0  501 -0.0000000000e+00 -0.0000000000e+00 -3.3504400120e+03 3.3504400133e+03 9.5000000000e-02 0.0000e+00 -1.0000e+00
  1000022  1    1    2    0    0 +3.6914587318e+02 -1.2345721388e+00 -1.6346490897e+03 1.7842454376e+03 6.1252260000e+02 0.0000e+00 1.0000e+00
  1000022  1    1    2    0    0 -3.5319914751e+02 +1.9905588197e+01 -1.7236106317e+02 7.2803718439e+02 6.1252260000e+02 0.0000e+00 1.0000e+00
       21  1    1    2  502  501 -1.5946725671e+01 -1.8671016058e+01 -1.1906670554e+03 1.1909202079e+03 0.0000000000e+00 0.0000e+00 -1.0000e+00
<mgrwt>
<rscale>  1 0.70890712E+03</rscale>
<asrwt>0</asrwt>
<pdfrwt beam="1">  1        3 0.54271204E-01 0.70890712E+03</pdfrwt>
<pdfrwt beam="2">  1       -3 0.51545229E+00 0.70890712E+03</pdfrwt>
<totfact> 0.23220938E-02</totfact>
</mgrwt>
</event>
<event>
 5      1 +1.8937969e-08 6.44291000e+02 7.81665300e-03 9.81755100e-02
        2 -1    0    0  502    0 +0.0000000000e+00 +0.0000000000e+00 +1.9881771814e+03 1.9881771814e+03 2.5000000000e-03 0.0000e+00 -1.0000e+00
       -2 -1    0    0    0  501 -0.0000000000e+00 -0.0000000000e+00 -2.5115796381e+02 2.5115796382e+02 2.5000000000e-03 0.0000e+00 1.0000e+00
  1000022  1    1    2    0    0 +2.8291964257e+01 +2.1516922605e+02 +1.1687989333e+03 1.3373006816e+03 6.1252260000e+02 0.0000e+00 -1.0000e+00
  1000022  1    1    2    0    0 -3.9925218344e+01 -1.8724985991e+02 +4.5977800839e+02 7.8945315606e+02 6.1252260000e+02 0.0000e+00 1.0000e+00
       21  1    1    2  502  501 +1.1633254087e+01 -2.7919366133e+01 +1.0844227592e+02 1.1258130756e+02 0.0000000000e+00 0.0000e+00 1.0000e+00
<mgrwt>
<rscale>  1 0.64429098E+03</rscale>
<asrwt>0</asrwt>
<pdfrwt beam="1">  1        2 0.30587340E+00 0.64429098E+03</pdfrwt>
<pdfrwt beam="2">  1       -2 0.38639688E-01 0.64429098E+03</pdfrwt>
<totfact> 0.44849168E+01</totfact>
</mgrwt>
</event>
<event>
 5      1 +1.8937969e-08 7.80066000e+02 7.81665300e-03 9.58932700e-02
       -3 -1    0    0    0  501 -0.0000000000e+00 +0.0000000000e+00 +1.5435274241e+03 1.5435274270e+03 9.5000000000e-02 0.0000e+00 1.0000e+00
        3 -1    0    0  502    0 +0.0000000000e+00 -0.0000000000e+00 -8.0611045913e+02 8.0611046472e+02 9.5000000000e-02 0.0000e+00 1.0000e+00
  1000022  1    1    2    0    0 +4.9488990172e+02 -2.2129112838e+01 +1.9934303603e+02 8.1260525102e+02 6.1252260000e+02 0.0000e+00 -1.0000e+00
  1000022  1    1    2    0    0 -4.7729500268e+02 +2.2652673215e+00 +8.9169287412e+02 1.1824194553e+03 6.1252260000e+02 0.0000e+00 -1.0000e+00
       21  1    1    2  502  501 -1.7594899038e+01 +1.9863845516e+01 -3.5361894522e+02 3.5461318538e+02 0.0000000000e+00 0.0000e+00 1.0000e+00
<mgrwt>
<rscale>  1 0.78006602E+03</rscale>
<asrwt>0</asrwt>
<pdfrwt beam="2">  1        3 0.12401699E+00 0.78006602E+03</pdfrwt>
<pdfrwt beam="1">  1       -3 0.23746576E+00 0.78006602E+03</pdfrwt>
<totfact> 0.11743055E-01</totfact>
</mgrwt>
</event>
<event>
 5      1 +1.8937969e-08 7.03578800e+02 7.81665300e-03 9.71113100e-02
       -3 -1    0    0    0  501 -0.0000000000e+00 +0.0000000000e+00 +1.4628421031e+03 1.4628421062e+03 9.5000000000e-02 0.0000e+00 1.0000e+00
        3 -1    0    0  502    0 +0.0000000000e+00 -0.0000000000e+00 -5.5577747018e+02 5.5577747830e+02 9.5000000000e-02 0.0000e+00 1.0000e+00
  1000022  1    1    2    0    0 +1.2673969089e+02 -3.3236546305e+02 -1.0845344148e+02 7.1657228160e+02 6.1252260000e+02 0.0000e+00 -1.0000e+00
  1000022  1    1    2    0    0 -1.0580329400e+02 +3.2712290515e+02 +1.0488554675e+03 1.2623333393e+03 6.1252260000e+02 0.0000e+00 -1.0000e+00
       21  1    1    2  502  501 -2.0936396883e+01 +5.2425578951e+00 -3.3337393128e+01 3.9713963644e+01 0.0000000000e+00 0.0000e+00 -1.0000e+00
<mgrwt>
<rscale>  1 0.70357879E+03</rscale>
<asrwt>0</asrwt>
<pdfrwt beam="2">  1        3 0.85504228E-01 0.70357879E+03</pdfrwt>
<pdfrwt beam="1">  1       -3 0.22505263E+00 0.70357879E+03</pdfrwt>
<totfact> 0.33694428E-01</totfact>
</mgrwt>
</event>
<event>
 5      1 +1.8937969e-08 8.64561600e+02 7.81665300e-03 9.47099900e-02
       -1 -1    0    0    0  501 -0.0000000000e+00 +0.0000000000e+00 +8.8964182146e+02 8.8964182147e+02 5.0000000000e-03 0.0000e+00 -1.0000e+00
        1 -1    0    0  502    0 +0.0000000000e+00 -0.0000000000e+00 -8.8160048832e+02 8.8160048834e+02 5.0000000000e-03 0.0000e+00 -1.0000e+00
  1000022  1    1    2    0    0 -3.2024389405e+01 +6.1078758913e+02 +1.1204218594e+02 8.7282554241e+02 6.1252260000e+02 0.0000e+00 1.0000e+00
  1000022  1    1    2    0    0 +3.6227977596e+00 -6.0863405516e+02 -9.5931038978e+01 8.6881254452e+02 6.1252260000e+02 0.0000e+00 1.0000e+00
       21  1    1    2  502  501 +2.8401591646e+01 -2.1535339622e+00 -8.0698138279e+00 2.9604222870e+01 0.0000000000e+00 0.0000e+00 1.0000e+00
<mgrwt>
<rscale>  1 0.86456161E+03</rscale>
<asrwt>0</asrwt>
<pdfrwt beam="2">  1        1 0.13563084E+00 0.86456161E+03</pdfrwt>
<pdfrwt beam="1">  1       -1 0.13686797E+00 0.86456161E+03</pdfrwt>
<totfact> 0.85238695E+00</totfact>
</mgrwt>
</event>
<event>
 5      1 +1.8937969e-08 8.58932100e+02 7.81665300e-03 9.47842600e-02
        3 -1    0    0  502    0 +0.0000000000e+00 +0.0000000000e+00 +8.5023005439e+02 8.5023005969e+02 9.5000000000e-02 0.0000e+00 1.0000e+00
       -3 -1    0    0    0  501 -0.0000000000e+00 -0.0000000000e+00 -1.0775519567e+03 1.0775519609e+03 9.5000000000e-02 0.0000e+00 1.0000e+00
  1000022  1    1    2    0    0 +1.3168777004e+01 -5.6494180610e+02 -2.4248672034e+02 8.6793801969e+02 6.1252260000e+02 0.0000e+00 -1.0000e+00
  1000022  1    1    2    0    0 -5.8859998594e+01 +6.4679250200e+02 -1.1427411171e+02 9.0002641528e+02 6.1252260000e+02 0.0000e+00 -1.0000e+00
       21  1    1    2  502  501 +4.5691221591e+01 -8.1850695897e+01 +1.2943892972e+02 1.5981758563e+02 0.0000000000e+00 0.0000e+00 1.0000e+00
<mgrwt>
<rscale>  1 0.85893208E+03</rscale>
<asrwt>0</asrwt>
<pdfrwt beam="1">  1        3 0.13080462E+00 0.85893208E+03</pdfrwt>
<pdfrwt beam="2">  1       -3 0.16577722E+00 0.85893208E+03</pdfrwt>
<totfact> 0.29114537E-01</totfact>
</mgrwt>
</event>
<event>
 5      1 +1.8937969e-08 8.76255600e+02 7.81665300e-03 9.45576000e-02
       -3 -1    0    0    0  501 -0.0000000000e+00 +0.0000000000e+00 +7.1837220692e+02 7.1837221320e+02 9.5000000000e-02 0.0000e+00 -1.0000e+00
        3 -1    0    0  502    0 +0.0000000000e+00 -0.0000000000e+00 -1.6030042338e+03 1.6030042366e+03 9.5000000000e-02 0.0000e+00 -1.0000e+00
  1000022  1    1    2    0    0 -5.0595429343e+01 +6.2969621088e+02 -5.4427111213e+02 1.0346459271e+03 6.1252260000e+02 0.0000e+00 1.0000e+00
  1000022  1    1    2    0    0 +1.0431963643e+02 -6.1409155148e+02 -5.7478016787e+02 1.0457280703e+03 6.1252260000e+02 0.0000e+00 1.0000e+00
       21  1    1    2  502  501 -5.3724207083e+01 -1.5604659401e+01 +2.3441925312e+02 2.4100245239e+02 0.0000000000e+00 0.0000e+00 -1.0000e+00
<mgrwt>
<rscale>  1 0.87625562E+03</rscale>
<asrwt>0</asrwt>
<pdfrwt beam="2">  1        3 0.24661603E+00 0.87625562E+03</pdfrwt>
<pdfrwt beam="1">  1       -3 0.11051880E+00 0.87625562E+03</pdfrwt>
<totfact> 0.13733760E-01</totfact>
</mgrwt>
</event>
<event>
 5      1 +1.8937969e-08 6.57318700e+02 7.81665300e-03 9.79314200e-02
        2 -1    0    0  502    0 +0.0000000000e+00 +0.0000000000e+00 +1.4094384566e+03 1.4094384566e+03 2.5000000000e-03 0.0000e+00 -1.0000e+00
       -2 -1    0    0    0  501 -0.0000000000e+00 -0.0000000000e+00 -5.9582220832e+02 5.9582220833e+02 2.5000000000e-03 0.0000e+00 1.0000e+00
  1000022  1    1    2    0    0 -2.4422890598e+02 -1.3593606784e+02 +8.5280652597e+02 1.0865492531e+03 6.1252260000e+02 0.0000e+00 -1.0000e+00
  1000022  1    1    2    0    0 +1.8931799804e+02 -1.0316702606e+02 +6.4121141484e+01 6.5251834912e+02 6.1252260000e+02 0.0000e+00 1.0000e+00
       21  1    1    2  502  501 +5.4910907946e+01 +2.3910309390e+02 -1.0331141918e+02 2.6619306275e+02 0.0000000000e+00 0.0000e+00 1.0000e+00
<mgrwt>
<rscale>  1 0.65731868E+03</rscale>
<asrwt>0</asrwt>
<pdfrwt beam="1">  1        2 0.21683668E+00 0.65731868E+03</pdfrwt>
<pdfrwt beam="2">  1       -2 0.91664956E-01 0.65731868E+03</pdfrwt>
<totfact> 0.14989570E+01</totfact>
</mgrwt>
</event>
<event>
 5      1 +1.8937969e-08 7.71066900e+02 7.81665300e-03 9.60286700e-02
        3 -1    0    0  502    0 +0.0000000000e+00 +0.0000000000e+00 +8.6678826007e+02 8.6678826527e+02 9.5000000000e-02 0.0000e+00 -1.0000e+00
       -3 -1    0    0    0  501 -0.0000000000e+00 -0.0000000000e+00 -1.0115926070e+03 1.0115926114e+03 9.5000000000e-02 0.0000e+00 -1.0000e+00
  1000022  1    1    2    0    0 -4.4533239850e+02 -1.1226698207e+02 -4.2613870630e+02 8.7618659710e+02 6.1252260000e+02 0.0000e+00 1.0000e+00
  1000022  1    1    2    0    0 +4.6425818916e+02 +8.4555281763e+01 +4.0583297975e+02 8.7325231454e+02 6.1252260000e+02 0.0000e+00 1.0000e+00
       21  1    1    2  502  501 -1.8925790666e+01 +2.7711700307e+01 -1.2449862035e+02 1.2894196506e+02 0.0000000000e+00 0.0000e+00 -1.0000e+00
<mgrwt>
<rscale>  1 0.77106692E+03</rscale>
<asrwt>0</asrwt>
<pdfrwt beam="1">  1        3 0.13335204E+00 0.77106692E+03</pdfrwt>
<pdfrwt beam="2">  1       -3 0.15562963E+00 0.77106692E+03</pdfrwt>
<totfact> 0.33029808E-01</totfact>
</mgrwt>
</event>
<event>
 5      1 +1.8937969e-08 8.02252400e+02 7.81665300e-03 9.55676300e-02
        3 -1    0    0  502    0 +0.0000000000e+00 +0.0000000000e+00 +5.3224519927e+02 5.3224520775e+02 9.5000000000e-02 0.0000e+00 -1.0000e+00
       -3 -1    0    0    0  501 -0.0000000000e+00 -0.0000000000e+00 -1.5545601009e+03 1.5545601038e+03 9.5000000000e-02 0.0000e+00 -1.0000e+00
  1000022  1    1    2    0    0 +3.2719602599e+02 -3.9008600838e+02 -7.3305394619e+01 7.9986370698e+02 6.1252260000e+02 0.0000e+00 1.0000e+00
  1000022  1    1    2    0    0 -3.1880044683e+02 +4.3561874445e+02 -8.5531747121e+02 1.1824336461e+03 6.1252260000e+02 0.0000e+00 1.0000e+00
       21  1    1    2  502  501 -8.3955791616e+00 -4.5532736077e+01 -9.3692035764e+01 1.0450795840e+02 0.0000000000e+00 0.0000e+00 -1.0000e+00
<mgrwt>
<rscale>  1 0.80225237E+03</rscale>
<asrwt>0</asrwt>
<pdfrwt beam="1">  1        3 0.81883879E-01 0.80225237E+03</pdfrwt>
<pdfrwt beam="2">  1       -3 0.23916309E+00 0.80225237E+03</pdfrwt>
<totfact> 0.30438698E-01</totfact>
</mgrwt>
</event>
<event>
 5      1 +1.8937969e-08 8.60415100e+02 7.81665300e-03 9.47646400e-02
        3 -1    0    0  502    0 -0.0000000000e+00 +0.0000000000e+00 +9.8114599300e+02 9.8114599760e+02 9.5000000000e-02 0.0000e+00 -1.0000e+00
       21 -1    0    0  501  502 +0.0000000000e+00 -0.0000000000e+00 -9.3712563134e+02 9.3712563134e+02 0.0000000000e+00 0.0000e+00 -1.0000e+00
  1000022  1    1    2    0    0 -1.2880609497e+02 -6.1252663735e+02 -1.3984285264e+02 8.8685954384e+02 6.1252260000e+02 0.0000e+00 1.0000e+00
  1000022  1    1    2    0    0 +2.5886495960e+02 +5.3673356296e+02 +1.0360329353e+02 8.6082028488e+02 6.1252260000e+02 0.0000e+00 1.0000e+00
        3  1    1    2  501    0 -1.3005886463e+02 +7.5793074388e+01 +8.0259920763e+01 1.7059180022e+02 9.5000000000e-02 0.0000e+00 1.0000e+00
<mgrwt>
<rscale>  1 0.86041514E+03</rscale>
<asrwt>0</asrwt>
<pdfrwt beam="2">  1       21 0.14417318E+00 0.86041514E+03</pdfrwt>
<pdfrwt beam="1">  1        3 0.15094554E+00 0.86041514E+03</pdfrwt>
<totfact> 0.44102115E+00</totfact>
</mgrwt>
</event>
<event>
 5      1 +1.8937969e-08 8.10731100e+02 7.81665300e-03 9.54461300e-02
        3 -1    0    0  502    0 +0.0000000000e+00 +0.0000000000e+00 +5.5645848138e+02 5.5645848949e+02 9.5000000000e-02 0.0000e+00 1.0000e+00
       -3 -1    0    0    0  501 -0.0000000000e+00 -0.0000000000e+00 -2.2202539789e+03 2.2202539809e+03 9.5000000000e-02 0.0000e+00 1.0000e+00
  1000022  1    1    2    0    0 -5.1911592252e+02 +6.1389078962e+01 -5.5048063220e+01 8.0713331291e+02 6.1252260000e+02 0.0000e+00 -1.0000e+00
  1000022  1    1    2    0    0 +5.3835243452e+02 -1.1962427878e+02 -7.6788572683e+02 1.1264837934e+03 6.1252260000e+02 0.0000e+00 -1.0000e+00
       21  1    1    2  502  501 -1.9236512004e+01 +5.8235199821e+01 -8.4086170748e+02 8.4309536412e+02 0.0000000000e+00 0.0000e+00 -1.0000e+00
<mgrwt>
<rscale>  1 0.81073112E+03</rscale>
<asrwt>0</asrwt>
<pdfrwt beam="1">  1        3 0.85608999E-01 0.81073112E+03</pdfrwt>
<pdfrwt beam="2">  1       -3 0.34157753E+00 0.81073112E+03</pdfrwt>
<totfact> 0.73506411E-02</totfact>
</mgrwt>
</event>
<event>
 5      1 +1.8937969e-08 6.15472100e+02 7.81665300e-03 9.87381600e-02
       21 -1    0    0  501  502 +0.0000000000e+00 +0.0000000000e+00 +1.2859870579e+03 1.2859870579e+03 0.0000000000e+00 0.0000e+00 -1.0000e+00
       -3 -1    0    0    0  501 -0.0000000000e+00 -0.0000000000e+00 -5.2098516984e+02 5.2098517850e+02 9.5000000000e-02 0.0000e+00 1.0000e+00
  1000022  1    1    2    0    0 +7.0081928781e+01 -4.2984701623e+01 +7.6299368260e+02 9.8188719134e+02 6.1252260000e+02 0.0000e+00 -1.0000e+00
  1000022  1    1    2    0    0 +9.8705267181e+01 -3.4820376556e+01 -7.0914320641e+01 6.2543422098e+02 6.1252260000e+02 0.0000e+00 1.0000e+00
       -3  1    1    2    0  502 -1.6878719596e+02 +7.7805078179e+01 +7.2922526070e+01 1.9965082405e+02 9.5000000000e-02 0.0000e+00 1.0000e+00
<mgrwt>
<rscale>  1 0.61547206E+03</rscale>
<asrwt>0</asrwt>
<pdfrwt beam="1">  1       21 0.19784416E+00 0.61547206E+03</pdfrwt>
<pdfrwt beam="2">  1       -3 0.80151566E-01 0.61547206E+03</pdfrwt>
<totfact> 0.84661720E+00</totfact>
</mgrwt>
</event>
<event>
 5      1 +1.8937969e-08 6.97392300e+02 7.81665300e-03 9.72170200e-02
        1 -1    0    0  502    0 -0.0000000000e+00 +0.0000000000e+00 +1.2204161862e+03 1.2204161862e+03 5.0000000000e-03 0.0000e+00 -1.0000e+00
       21 -1    0    0  501  502 +0.0000000000e+00 -0.0000000000e+00 -4.9987139962e+02 4.9987139962e+02 0.0000000000e+00 0.0000e+00 1.0000e+00
  1000022  1    1    2    0    0 +2.3167974289e+02 -2.0469755638e+02 +4.9607982332e+02 8.4667332512e+02 6.1252260000e+02 0.0000e+00 -1.0000e+00
  1000022  1    1    2    0    0 -2.4248974416e+02 +2.9122184727e+02 +1.0831054032e+02 7.2837253449e+02 6.1252260000e+02 0.0000e+00 1.0000e+00
        1  1    1    2  501    0 +1.0810001270e+01 -8.6524290890e+01 +1.1615442298e+02 1.4524172625e+02 5.0000000000e-03 0.0000e+00 -1.0000e+00
<mgrwt>
<rscale>  1 0.69739230E+03</rscale>
<asrwt>0</asrwt>
<pdfrwt beam="2">  1       21 0.76903293E-01 0.69739230E+03</pdfrwt>
<pdfrwt beam="1">  1        1 0.18775634E+00 0.69739230E+03</pdfrwt>
<totfact> 0.15404206E+02</totfact>
</mgrwt>
</event>
<event>
 5      1 +1.8937969e-08 8.39552000e+02 7.81665300e-03 9.50446800e-02
       -2 -1    0    0    0  501 -0.0000000000e+00 +0.0000000000e+00 +1.1540116711e+03 1.1540116711e+03 2.5000000000e-03 0.0000e+00 1.0000e+00
        2 -1    0    0  502    0 +0.0000000000e+00 -0.0000000000e+00 -1.2676409685e+03 1.2676409685e+03 2.5000000000e-03 0.0000e+00 -1.0000e+00
  1000022  1    1    2    0    0 +4.1107059001e+02 -2.6167843703e+02 +3.4323750214e+02 8.5466399992e+02 6.1252260000e+02 0.0000e+00 1.0000e+00
  1000022  1    1    2    0    0 -4.0378281788e+02 +4.5191381333e+02 -7.9923146416e+02 1.1752538141e+03 6.1252260000e+02 0.0000e+00 -1.0000e+00
       21  1    1    2  502  501 -7.2877721249e+00 -1.9023537630e+02 +3.4236466457e+02 3.9173482557e+02 0.0000000000e+00 0.0000e+00 1.0000e+00
<mgrwt>
<rscale>  1 0.83955196E+03</rscale>
<asrwt>0</asrwt>
<pdfrwt beam="2">  1        2 0.19502169E+00 0.83955196E+03</pdfrwt>
<pdfrwt beam="1">  1       -2 0.17754026E+00 0.83955196E+03</pdfrwt>
<totfact> 0.32951260E+00</totfact>
</mgrwt>
</event>
<event>
 5      1 +1.8937969e-08 8.78755600e+02 7.81665300e-03 9.45253500e-02
       21 -1    0    0  501  502 +0.0000000000e+00 +0.0000000000e+00 +7.1488591974e+02 7.1488591974e+02 0.0000000000e+00 0.0000e+00 -1.0000e+00
        3 -1    0    0  502    0 -0.0000000000e+00 -0.0000000000e+00 -1.4390292166e+03 1.4390292198e+03 9.5000000000e-02 0.0000e+00 -1.0000e+00
  1000022  1    1    2    0    0 +5.3761051043e+02 -2.1622037954e+01 -1.4678689314e+02 8.2838571991e+02 6.1252260000e+02 0.0000e+00 1.0000e+00
  1000022  1    1    2    0    0 -6.8195790024e+02 +1.7691050854e+02 -6.0389079298e+02 1.1118596724e+03 6.1252260000e+02 0.0000e+00 1.0000e+00
        3  1    1    2  501    0 +1.4434738981e+02 -1.5528847059e+02 +2.6534389217e+01 2.1366974722e+02 9.5000000000e-02 0.0000e+00 1.0000e+00
<mgrwt>
<rscale>  1 0.87875562E+03</rscale>
<asrwt>0</asrwt>
<pdfrwt beam="1">  1       21 0.10998245E+00 0.87875562E+03</pdfrwt>
<pdfrwt beam="2">  1        3 0.22138911E+00 0.87875562E+03</pdfrwt>
<totfact> 0.30577141E+00</totfact>
</mgrwt>
</event>
<event>
 5      1 +1.8937969e-08 6.12984700e+02 7.81665300e-03 9.87882700e-02
       21 -1    0    0  501  502 +0.0000000000e+00 +0.0000000000e+00 +1.4146625186e+03 1.4146625186e+03 0.0000000000e+00 0.0000e+00 1.0000e+00
       -3 -1    0    0    0  501 -0.0000000000e+00 -0.0000000000e+00 -5.5297428995e+02 5.5297429811e+02 9.5000000000e-02 0.0000e+00 1.0000e+00
  1000022  1    1    2    0    0 +1.5663177174e+01 +1.0386738747e+01 -2.6236503097e+02 6.6661275449e+02 6.1252260000e+02 0.0000e+00 -1.0000e+00
  1000022  1    1    2    0    0 -5.1941227041e+01 -1.5654531313e+01 +1.0871453246e+03 1.2490043425e+03 6.1252260000e+02 0.0000e+00 -1.0000e+00
       -3  1    1    2    0  502 +3.6278049868e+01 +5.2677925655e+00 +3.6907935011e+01 5.2019719650e+01 9.5000000000e-02 0.0000e+00 -1.0000e+00
<mgrwt>
<rscale>  1 0.61298465E+03</rscale>
<asrwt>0</asrwt>
<pdfrwt beam="1">  1       21 0.21764039E+00 0.61298465E+03</pdfrwt>
<pdfrwt beam="2">  1       -3 0.85072969E-01 0.61298465E+03</pdfrwt>
<totfact> 0.54737734E+00</totfact>
</mgrwt>
</event>
<event>
 5      1 +1.8937969e-08 6.22781300e+02 7.81665300e-03 9.85923800e-02
        2 -1    0    0  502    0 +0.0000000000e+00 +0.0000000000e+00 +2.0159418336e+02 2.0159418337e+02 2.5000000000e-03 0.0000e+00 -1.0000e+00
       -2 -1    0    0    0  501 -0.0000000000e+00 -0.0000000000e+00 -2.2594290222e+03 2.2594290222e+03 2.5000000000e-03 0.0000e+00 1.0000e+00
  1000022  1    1    2    0    0 -9.7687750546e+01 -6.5405971974e+00 -1.3273740470e+03 1.4651591969e+03 6.1252260000e+02 0.0000e+00 1.0000e+00
  1000022  1    1    2    0    0 +1.3875790620e+02 -1.7806963754e+01 -6.9087416398e+02 9.3384254050e+02 6.1252260000e+02 0.0000e+00 -1.0000e+00
       21  1    1    2  502  501 -4.1070155651e+01 +2.4347560952e+01 -3.9586627825e+01 6.2021468155e+01 0.0000000000e+00 0.0000e+00 -1.0000e+00
<mgrwt>
<rscale>  1 0.62278134E+03</rscale>
<asrwt>0</asrwt>
<pdfrwt beam="1">  1        2 0.31014491E-01 0.62278134E+03</pdfrwt>
<pdfrwt beam="2">  1       -2 0.34760445E+00 0.62278134E+03</pdfrwt>
<totfact> 0.29591078E+00</totfact>
</mgrwt>
</event>
<event>
 5      1 +1.8937969e-08 8.01227800e+02 7.81665300e-03 9.55824200e-02
        2 -1    0    0  502    0 +0.0000000000e+00 +0.0000000000e+00 +6.0212048872e+02 6.0212048872e+02 2.5000000000e-03 0.0000e+00 -1.0000e+00
       -2 -1    0    0    0  501 -0.0000000000e+00 -0.0000000000e+00 -1.2199348599e+03 1.2199348599e+03 2.5000000000e-03 0.0000e+00 1.0000e+00
  1000022  1    1    2    0    0 +4.5743867917e+02 +2.3453439990e+02 -5.6562201078e+02 9.7947369772e+02 6.1252260000e+02 0.0000e+00 -1.0000e+00
  1000022  1    1    2    0    0 -4.5057716977e+02 -2.5548531728e+02 -1.8580629184e+01 8.0238501267e+02 6.1252260000e+02 0.0000e+00 1.0000e+00
       21  1    1    2  502  501 -6.8615094049e+00 +2.0950917380e+01 -3.3611731222e+01 4.0196638244e+01 0.0000000000e+00 0.0000e+00 1.0000e+00
<mgrwt>
<rscale>  1 0.80122778E+03</rscale>
<asrwt>0</asrwt>
<pdfrwt beam="1">  1        2 0.92633922E-01 0.80122778E+03</pdfrwt>
<pdfrwt beam="2">  1       -2 0.18768229E+00 0.80122778E+03</pdfrwt>
<totfact> 0.80351865E+00</totfact>
</mgrwt>
</event>
<event>
 5      1 +1.8937969e-08 8.41736900e+02 7.81665300e-03 9.50149500e-02
       -3 -1    0    0    0  501 -0.0000000000e+00 +0.0000000000e+00 +5.0035646041e+02 5.0035646943e+02 9.5000000000e-02 0.0000e+00 -1.0000e+00
        3 -1    0    0  502    0 +0.0000000000e+00 -0.0000000000e+00 -1.6398645429e+03 1.6398645456e+03 9.5000000000e-02 0.0000e+00 -1.0000e+00
  1000022  1    1    2    0    0 +5.4696133466e+02 -1.8624444966e+02 -8.2024324873e+02 1.1755154696e+03 6.1252260000e+02 0.0000e+00 1.0000e+00
  1000022  1    1    2    0    0 -5.3432763881e+02 +2.1852766708e+02 -3.5628013648e+02 9.1399115862e+02 6.1252260000e+02 0.0000e+00 1.0000e+00
       21  1    1    2  502  501 -1.2633695853e+01 -3.2283217421e+01 +3.7015302733e+01 5.0714386858e+01 0.0000000000e+00 0.0000e+00 -1.0000e+00
<mgrwt>
<rscale>  1 0.84173693E+03</rscale>
<asrwt>0</asrwt>
<pdfrwt beam="2">  1        3 0.25228685E+00 0.84173693E+03</pdfrwt>
<pdfrwt beam="1">  1       -3 0.76977918E-01 0.84173693E+03</pdfrwt>
<totfact> 0.29549187E-01</totfact>
</mgrwt>
</event>
<event>
 5      1 +1.8937969e-08 7.80123800e+02 7.81665300e-03 9.58924100e-02
       -3 -1    0    0    0  501 -0.0000000000e+00 +0.0000000000e+00 +4.7533588656e+02 4.7533589605e+02 9.5000000000e-02 0.0000e+00 -1.0000e+00
        3 -1    0    0  502    0 +0.0000000000e+00 -0.0000000000e+00 -1.6741797570e+03 1.6741797597e+03 9.5000000000e-02 0.0000e+00 -1.0000e+00
  1000022  1    1    2    0    0 +3.2865545117e+02 -3.0861553498e+02 -1.5191307044e+02 7.7557686305e+02 6.1252260000e+02 0.0000e+00 1.0000e+00
  1000022  1    1    2    0    0 -3.4482644774e+02 +3.5766660072e+02 -1.0594686450e+03 1.3207908318e+03 6.1252260000e+02 0.0000e+00 1.0000e+00
       21  1    1    2  502  501 +1.6170996571e+01 -4.9051065745e+01 +1.2537845001e+01 5.3147960808e+01 0.0000000000e+00 0.0000e+00 -1.0000e+00
<mgrwt>
<rscale>  1 0.78012384E+03</rscale>
<asrwt>0</asrwt>
<pdfrwt beam="2">  1        3 0.25756611E+00 0.78012384E+03</pdfrwt>
<pdfrwt beam="1">  1       -3 0.73128600E-01 0.78012384E+03</pdfrwt>
<totfact> 0.31060182E-01</totfact>
</mgrwt>
</event>
<event>
 5      1 +1.8937969e-08 9.93324400e+02 7.81665300e-03 9.31589700e-02
       -2 -1    0    0    0  501 -0.0000000000e+00 +0.0000000000e+00 +1.3860799376e+03 1.3860799376e+03 2.5000000000e-03 0.0000e+00 1.0000e+00
        2 -1    0    0  502    0 +0.0000000000e+00 -0.0000000000e+00 -9.4171827431e+02 9.4171827431e+02 2.5000000000e-03 0.0000e+00 -1.0000e+00
  1000022  1    1    2    0    0 -6.1587848952e+02 +4.8265490987e+02 -1.5219023494e+02 1.0052899477e+03 6.1252260000e+02 0.0000e+00 -1.0000e+00
  1000022  1    1    2    0    0 +6.0119230428e+02 -4.9990051650e+02 +7.0095868396e+02 1.2156725403e+03 6.1252260000e+02 0.0000e+00 1.0000e+00
       21  1    1    2  502  501 +1.4686185237e+01 +1.7245606635e+01 -1.0440678575e+02 1.0683572387e+02 0.0000000000e+00 0.0000e+00 1.0000e+00
<mgrwt>
<rscale>  1 0.99332441E+03</rscale>
<asrwt>0</asrwt>
<pdfrwt beam="2">  1        2 0.14487973E+00 0.99332441E+03</pdfrwt>
<pdfrwt beam="1">  1       -2 0.21324307E+00 0.99332441E+03</pdfrwt>
<totfact> 0.29825956E+00</totfact>
</mgrwt>
</event>
<event>
 5      1 +1.8937969e-08 8.12039700e+02 7.81665300e-03 9.54275200e-02
       -2 -1    0    0    0  501 -0.0000000000e+00 +0.0000000000e+00 +5.5448221684e+02 5.5448221685e+02 2.5000000000e-03 0.0000e+00 1.0000e+00
        2 -1    0    0  502    0 +0.0000000000e+00 -0.0000000000e+00 -1.8549855322e+03 1.8549855322e+03 2.5000000000e-03 0.0000e+00 -1.0000e+00
  1000022  1    1    2    0    0 -4.4777290751e+02 -2.8731309887e+02 -1.5272578461e+02 8.2556556025e+02 6.1252260000e+02 0.0000e+00 -1.0000e+00
  1000022  1    1    2    0    0 +4.7027534781e+02 +2.5647917368e+02 -5.4374313856e+02 9.7866286612e+02 6.1252260000e+02 0.0000e+00 1.0000e+00
       21  1    1    2  502  501 -2.2502440300e+01 +3.0833925187e+01 -6.0403439222e+02 6.0523932271e+02 0.0000000000e+00 0.0000e+00 1.0000e+00
<mgrwt>
<rscale>  1 0.81203973E+03</rscale>
<asrwt>0</asrwt>
<pdfrwt beam="2">  1        2 0.28538239E+00 0.81203973E+03</pdfrwt>
<pdfrwt beam="1">  1       -2 0.85304957E-01 0.81203973E+03</pdfrwt>
<totfact> 0.98336228E+00</totfact>
</mgrwt>
</event>
<event>
 5      1 +1.8937969e-08 7.27954300e+02 7.81665300e-03 9.67058600e-02
        3 -1    0    0  502    0 -0.0000000000e+00 +0.0000000000e+00 +2.2816905953e+03 2.2816905973e+03 9.5000000000e-02 0.0000e+00 -1.0000e+00
       21 -1    0    0  501  502 +0.0000000000e+00 -0.0000000000e+00 -3.9565305110e+02 3.9565305110e+02 0.0000000000e+00 0.0000e+00 -1.0000e+00
  1000022  1    1    2    0    0 -3.0942467393e+02 +2.4993164094e+02 +1.5908514157e+03 1.7504861085e+03 6.1252260000e+02 0.0000e+00 1.0000e+00
  1000022  1    1    2    0    0 +2.1232689129e+02 -3.3102283139e+02 +1.6711338443e+02 7.4683977025e+02 6.1252260000e+02 0.0000e+00 1.0000e+00
        3  1    1    2  501    0 +9.7097782638e+01 +8.1091190444e+01 +1.2807274414e+02 1.8001776962e+02 9.5000000000e-02 0.0000e+00 1.0000e+00
<mgrwt>
<rscale>  1 0.72795430E+03</rscale>
<asrwt>0</asrwt>
<pdfrwt beam="2">  1       21 0.60869702E-01 0.72795430E+03</pdfrwt>
<pdfrwt beam="1">  1        3 0.35102931E+00 0.72795430E+03</pdfrwt>
<totfact> 0.24240960E+00</totfact>
</mgrwt>
</event>
<event>
 5      1 +1.8937969e-08 7.14593400e+02 7.81665300e-03 9.69259600e-02
        2 -1    0    0  502    0 +0.0000000000e+00 +0.0000000000e+00 +1.7215077831e+03 1.7215077831e+03 2.5000000000e-03 0.0000e+00 -1.0000e+00
       -2 -1    0    0    0  501 -0.0000000000e+00 -0.0000000000e+00 -6.6227887032e+02 6.6227887032e+02 2.5000000000e-03 0.0000e+00 1.0000e+00
  1000022  1    1    2    0    0 -1.2442802318e+02 +3.4507030664e+02 -2.7423271734e+02 7.6481590481e+02 6.1252260000e+02 0.0000e+00 1.0000e+00
  1000022  1    1    2    0    0 +3.8705351891e+01 -3.6778458453e+02 +1.3508129448e+03 1.5286082402e+03 6.1252260000e+02 0.0000e+00 -1.0000e+00
       21  1    1    2  502  501 +8.5722671287e+01 +2.2714277892e+01 -1.7351314669e+01 9.0362508340e+01 0.0000000000e+00 0.0000e+00 -1.0000e+00
<mgrwt>
<rscale>  1 0.71459344E+03</rscale>
<asrwt>0</asrwt>
<pdfrwt beam="1">  1        2 0.26484735E+00 0.71459344E+03</pdfrwt>
<pdfrwt beam="2">  1       -2 0.10188906E+00 0.71459344E+03</pdfrwt>
<totfact> 0.77992119E+00</totfact>
</mgrwt>
</event>
<event>
 5      1 +1.8937969e-08 7.37917600e+02 7.81665300e-03 9.65449900e-02
        3 -1    0    0  502    0 -0.0000000000e+00 +0.0000000000e+00 +3.9658834173e+02 3.9658835311e+02 9.5000000000e-02 0.0000e+00 1.0000e+00
       21 -1    0    0  501  502 +0.0000000000e+00 -0.0000000000e+00 -2.0599416396e+03 2.0599416396e+03 0.0000000000e+00 0.0000e+00 1.0000e+00
  1000022  1    1    2    0    0 +2.2356197820e+02 +3.1787221274e+02 -1.4626949956e+03 1.6326920369e+03 6.1252260000e+02 0.0000e+00 -1.0000e+00
  1000022  1    1    2    0    0 -2.0036538665e+02 -3.6829857429e+02 -1.9817921969e+02 7.6827668624e+02 6.1252260000e+02 0.0000e+00 -1.0000e+00
        3  1    1    2  501    0 -2.3196591550e+01 +5.0426361546e+01 -2.4790825652e+00 5.5561269547e+01 9.5000000000e-02 0.0000e+00 -1.0000e+00
<mgrwt>
<rscale>  1 0.73791760E+03</rscale>
<asrwt>0</asrwt>
<pdfrwt beam="2">  1       21 0.31691410E+00 0.73791760E+03</pdfrwt>
<pdfrwt beam="1">  1        3 0.61013592E-01 0.73791760E+03</pdfrwt>
<totfact> 0.26431589E+00</totfact>
</mgrwt>
</event>
<event>
 5      1 +1.8937969e-08 8.33255500e+02 7.81665300e-03 9.51309000e-02
       -3 -1    0    0    0  501 -0.0000000000e+00 +0.0000000000e+00 +1.0776081387e+03 1.0776081429e+03 9.5000000000e-02 0.0000e+00 1.0000e+00
        3 -1    0    0  502    0 +0.0000000000e+00 -0.0000000000e+00 -7.6830795474e+02 7.6830796062e+02 9.5000000000e-02 0.0000e+00 1.0000e+00
  1000022  1    1    2    0    0 -5.4700263590e+02 +1.1795366094e+02 +2.0469312661e+02 8.5452218309e+02 6.1252260000e+02 0.0000e+00 -1.0000e+00
  1000022  1    1    2    0    0 +5.6255148479e+02 -9.4759220691e+01 +2.2585619679e+02 8.6697084154e+02 6.1252260000e+02 0.0000e+00 -1.0000e+00
       21  1    1    2  502  501 -1.5548848895e+01 -2.3194440253e+01 -1.2124913940e+02 1.2442307891e+02 0.0000000000e+00 0.0000e+00 -1.0000e+00
<mgrwt>
<rscale>  1 0.83325554E+03</rscale>
<asrwt>0</asrwt>
<pdfrwt beam="2">  1        3 0.11820122E+00 0.83325554E+03</pdfrwt>
<pdfrwt beam="1">  1       -3 0.16578587E+00 0.83325554E+03</pdfrwt>
<totfact> 0.37463344E-01</totfact>
</mgrwt>
</event>
<event>
 5      1 +1.8937969e-08 8.22077100e+02 7.81665300e-03 9.52860000e-02
       -3 -1    0    0    0  501 -0.0000000000e+00 +0.0000000000e+00 +6.9038962145e+02 6.9038962799e+02 9.5000000000e-02 0.0000e+00 1.0000e+00
        3 -1    0    0  502    0 +0.0000000000e+00 -0.0000000000e+00 -1.1468159738e+03 1.1468159778e+03 9.5000000000e-02 0.0000e+00 1.0000e+00
  1000022  1    1    2    0    0 +2.6285474569e+02 -4.7571495294e+02 +8.6758337385e+01 8.2347330157e+02 6.1252260000e+02 0.0000e+00 -1.0000e+00
  1000022  1    1    2    0    0 -2.5721819667e+02 +4.9518452569e+02 -5.0458214925e+02 9.7013194775e+02 6.1252260000e+02 0.0000e+00 -1.0000e+00
       21  1    1    2  502  501 -5.6365490160e+00 -1.9469572750e+01 -3.8602540517e+01 4.3600356446e+01 0.0000000000e+00 0.0000e+00 1.0000e+00
<mgrwt>
<rscale>  1 0.82207711E+03</rscale>
<asrwt>0</asrwt>
<pdfrwt beam="2">  1        3 0.17643323E+00 0.82207711E+03</pdfrwt>
<pdfrwt beam="1">  1       -3 0.10621379E+00 0.82207711E+03</pdfrwt>
<totfact> 0.41051009E-01</totfact>
</mgrwt>
</event>
<event>
 5      1 +1.8937969e-08 1.07808800e+03 7.81665300e-03 9.22681600e-02
       -2 -1    0    0    0  501 -0.0000000000e+00 +0.0000000000e+00 +5.1005520893e+02 5.1005520894e+02 2.5000000000e-03 0.0000e+00 1.0000e+00
        2 -1    0    0  502    0 +0.0000000000e+00 -0.0000000000e+00 -3.1741848329e+03 3.1741848329e+03 2.5000000000e-03 0.0000e+00 -1.0000e+00
  1000022  1    1    2    0    0 -8.6328709061e+02 -2.0336851412e+02 -5.5022088988e+02 1.2101860669e+03 6.1252260000e+02 0.0000e+00 -1.0000e+00
  1000022  1    1    2    0    0 +8.5737640147e+02 +2.2883025566e+02 -2.1638867489e+03 2.4176532790e+03 6.1252260000e+02 0.0000e+00 1.0000e+00
       21  1    1    2  502  501 +5.9106891411e+00 -2.5461741542e+01 +4.9978014875e+01 5.6400695911e+01 0.0000000000e+00 0.0000e+00 1.0000e+00
<mgrwt>
<rscale>  1 0.10780876E+04</rscale>
<asrwt>0</asrwt>
<pdfrwt beam="2">  1        2 0.48833612E+00 0.10780876E+04</pdfrwt>
<pdfrwt beam="1">  1       -2 0.78470034E-01 0.10780876E+04</pdfrwt>
<totfact> 0.19726128E+00</totfact>
</mgrwt>
</event>
<event>
 5      1 +1.8937969e-08 7.15341200e+02 7.81665300e-03 9.69135100e-02
        2 -1    0    0  502    0 +0.0000000000e+00 +0.0000000000e+00 +1.6535016249e+03 1.6535016249e+03 2.5000000000e-03 0.0000e+00 -1.0000e+00
       -2 -1    0    0    0  501 -0.0000000000e+00 -0.0000000000e+00 -4.8714625401e+02 4.8714625402e+02 2.5000000000e-03 0.0000e+00 1.0000e+00
  1000022  1    1    2    0    0 -2.7603533016e+02 +2.2873319568e+02 +1.1170904178e+03 1.3234762239e+03 6.1252260000e+02 0.0000e+00 -1.0000e+00
  1000022  1    1    2    0    0 +3.2553655508e+02 -2.3908804474e+02 +1.0582838699e+02 7.4129665104e+02 6.1252260000e+02 0.0000e+00 1.0000e+00
       21  1    1    2  502  501 -4.9501224926e+01 +1.0354849064e+01 -5.6563433895e+01 7.5875003937e+01 0.0000000000e+00 0.0000e+00 1.0000e+00
<mgrwt>
<rscale>  1 0.71534118E+03</rscale>
<asrwt>0</asrwt>
<pdfrwt beam="1">  1        2 0.25438487E+00 0.71534118E+03</pdfrwt>
<pdfrwt beam="2">  1       -2 0.74945577E-01 0.71534118E+03</pdfrwt>
<totfact> 0.17179141E+01</totfact>
</mgrwt>
</event>
<event>
 5      1 +1.8937969e-08 1.19439400e+03 7.81665300e-03 9.11777700e-02
        1 -1    0    0  502    0 +0.0000000000e+00 +0.0000000000e+00 +3.2806904488e+03 3.2806904488e+03 5.0000000000e-03 0.0000e+00 1.0000e+00
       -1 -1    0    0    0  501 -0.0000000000e+00 -0.0000000000e+00 -4.8794522330e+02 4.8794522332e+02 5.0000000000e-03 0.0000e+00 -1.0000e+00
  1000022  1    1    2    0    0 -4.2988209038e+02 +9.5925041506e+02 +1.8767404460e+03 2.2365819027e+03 6.1252260000e+02 0.0000e+00 1.0000e+00
  1000022  1    1    2    0    0 +4.1384422333e+02 -9.2227533080e+02 +8.5440741139e+02 1.4584425896e+03 6.1252260000e+02 0.0000e+00 -1.0000e+00
       21  1    1    2  502  501 +1.6037867044e+01 -3.6975084259e+01 +6.1597368175e+01 7.3611179867e+01 0.0000000000e+00 0.0000e+00 -1.0000e+00
<mgrwt>
<rscale>  1 0.11943942E+04</rscale>
<asrwt>0</asrwt>
<pdfrwt beam="1">  1        1 0.50472160E+00 0.11943942E+04</pdfrwt>
<pdfrwt beam="2">  1       -1 0.75068497E-01 0.11943942E+04</pdfrwt>
<totfact> 0.66153099E-01</totfact>
</mgrwt>
</event>
<event>
 5      1 +1.8937969e-08 7.63960500e+02 7.81665300e-03 9.61370000e-02
       21 -1    0    0  501  502 +0.0000000000e+00 +0.0000000000e+00 +9.7752104760e+02 9.7752104760e+02 0.0000000000e+00 0.0000e+00 1.0000e+00
        3 -1    0    0  502    0 -0.0000000000e+00 -0.0000000000e+00 -1.4687502402e+03 1.4687502433e+03 9.5000000000e-02 0.0000e+00 1.0000e+00
  1000022  1    1    2    0    0 +4.3568890213e+02 -3.8854453625e+02 +5.2558225746e+01 8.4778415808e+02 6.1252260000e+02 0.0000e+00 -1.0000e+00
  1000022  1    1    2    0    0 -1.8616894049e+02 +3.8523542032e+02 -8.9611774890e+02 1.1667373993e+03 6.1252260000e+02 0.0000e+00 -1.0000e+00
        3  1    1    2  501    0 -2.4951996164e+02 +3.3091159298e+00 +3.5233033058e+02 4.3174973350e+02 9.5000000000e-02 0.0000e+00 -1.0000e+00
<mgrwt>
<rscale>  1 0.76396053E+03</rscale>
<asrwt>0</asrwt>
<pdfrwt beam="1">  1       21 0.15038785E+00 0.76396053E+03</pdfrwt>
<pdfrwt beam="2">  1        3 0.22596158E+00 0.76396053E+03</pdfrwt>
<totfact> 0.12883759E+00</totfact>
</mgrwt>
</event>
<event>
 5      1 +1.8937969e-08 7.27796500e+02 7.81665300e-03 9.67084300e-02
        2 -1    0    0  502    0 +0.0000000000e+00 +0.0000000000e+00 +1.3044927862e+03 1.3044927862e+03 2.5000000000e-03 0.0000e+00 -1.0000e+00
       -2 -1    0    0    0  501 -0.0000000000e+00 -0.0000000000e+00 -6.4312439062e+02 6.4312439063e+02 2.5000000000e-03 0.0000e+00 1.0000e+00
  1000022  1    1    2    0    0 -3.7709142115e+02 -2.6325703124e+01 +3.1983565930e+02 7.8763555470e+02 6.1252260000e+02 0.0000e+00 1.0000e+00
  1000022  1    1    2    0    0 +4.0314585566e+02 +3.4995233763e+01 +5.7027568717e+02 9.2959644051e+02 6.1252260000e+02 0.0000e+00 -1.0000e+00
       21  1    1    2  502  501 -2.6054434508e+01 -8.6695306389e+00 -2.2874295091e+02 2.3038518162e+02 0.0000000000e+00 0.0000e+00 -1.0000e+00
<mgrwt>
<rscale>  1 0.72779649E+03</rscale>
<asrwt>0</asrwt>
<pdfrwt beam="1">  1        2 0.20069120E+00 0.72779649E+03</pdfrwt>
<pdfrwt beam="2">  1       -2 0.98942214E-01 0.72779649E+03</pdfrwt>
<totfact> 0.14250032E+01</totfact>
</mgrwt>
</event>
<event>
 5      1 +1.8937969e-08 8.41670600e+02 7.81665300e-03 9.50158500e-02
       -2 -1    0    0    0  501 -0.0000000000e+00 +0.0000000000e+00 +2.2244261599e+03 2.2244261599e+03 2.5000000000e-03 0.0000e+00 1.0000e+00
        2 -1    0    0  502    0 +0.0000000000e+00 -0.0000000000e+00 -5.9536880231e+02 5.9536880231e+02 2.5000000000e-03 0.0000e+00 -1.0000e+00
  1000022  1    1    2    0    0 -1.9445561493e+02 +5.4072838100e+02 +1.7116605606e+03 1.9066111241e+03 6.1252260000e+02 0.0000e+00 1.0000e+00
  1000022  1    1    2    0    0 +1.8517357232e+02 -5.5932294248e+02 -2.3154026452e+01 8.5020671035e+02 6.1252260000e+02 0.0000e+00 -1.0000e+00
       21  1    1    2  502  501 +9.2820426063e+00 +1.8594561478e+01 -5.9449176560e+01 6.2977127794e+01 0.0000000000e+00 0.0000e+00 -1.0000e+00
<mgrwt>
<rscale>  1 0.84167058E+03</rscale>
<asrwt>0</asrwt>
<pdfrwt beam="2">  1        2 0.91595199E-01 0.84167058E+03</pdfrwt>
<pdfrwt beam="1">  1       -2 0.34221941E+00 0.84167058E+03</pdfrwt>
<totfact> 0.90359621E-01</totfact>
</mgrwt>
</event>
<event>
 5      1 +1.8937969e-08 6.82966700e+02 7.81665300e-03 9.74681300e-02
       -1 -1    0    0    0  501 -0.0000000000e+00 +0.0000000000e+00 +5.6537219670e+02 5.6537219672e+02 5.0000000000e-03 0.0000e+00 1.0000e+00
        1 -1    0    0  502    0 +0.0000000000e+00 -0.0000000000e+00 -1.6826785708e+03 1.6826785708e+03 5.0000000000e-03 0.0000e+00 -1.0000e+00
  1000022  1    1    2    0    0 -1.5903098324e+02 +2.3855866285e+02 -1.5943030189e+02 6.9484030246e+02 6.1252260000e+02 0.0000e+00 -1.0000e+00
  1000022  1    1    2    0    0 +2.1058710727e+02 -2.3812691349e+02 -1.0413114808e+02 6.9791015768e+02 6.1252260000e+02 0.0000e+00 1.0000e+00
       21  1    1    2  502  501 -5.1556124037e+01 -4.3174936528e-01 -8.5374492415e+02 8.5530030740e+02 0.0000000000e+00 0.0000e+00 -1.0000e+00
<mgrwt>
<rscale>  1 0.68296667E+03</rscale>
<asrwt>0</asrwt>
<pdfrwt beam="2">  1        1 0.25887362E+00 0.68296667E+03</pdfrwt>
<pdfrwt beam="1">  1       -1 0.86980339E-01 0.68296667E+03</pdfrwt>
<totfact> 0.67292909E+00</totfact>
</mgrwt>
</event>
<event>
 5      1 +1.8937969e-08 8.67812900e+02 7.81665300e-03 9.46673600e-02
       -3 -1    0    0    0  501 -0.0000000000e+00 +0.0000000000e+00 +1.9247323775e+03 1.9247323798e+03 9.5000000000e-02 0.0000e+00 -1.0000e+00
        3 -1    0    0  502    0 +0.0000000000e+00 -0.0000000000e+00 -7.0531612886e+02 7.0531613526e+02 9.5000000000e-02 0.0000e+00 -1.0000e+00
  1000022  1    1    2    0    0 -5.0350499580e+02 +2.5587128643e+02 +4.0508655282e+02 9.2642670882e+02 6.1252260000e+02 0.0000e+00 1.0000e+00
  1000022  1    1    2    0    0 +4.7838083886e+02 -4.5538181613e+02 +3.7901986449e+01 9.0157713011e+02 6.1252260000e+02 0.0000e+00 1.0000e+00
       21  1    1    2  502  501 +2.5124156939e+01 +1.9951052970e+02 +7.7642770936e+02 8.0204467618e+02 0.0000000000e+00 0.0000e+00 -1.0000e+00
<mgrwt>
<rscale>  1 0.86781288E+03</rscale>
<asrwt>0</asrwt>
<pdfrwt beam="2">  1        3 0.10851018E+00 0.86781288E+03</pdfrwt>
<pdfrwt beam="1">  1       -3 0.29611267E+00 0.86781288E+03</pdfrwt>
<totfact> 0.74811334E-02</totfact>
</mgrwt>
</event>
<event>
 5      1 +1.8937969e-08 7.82588300e+02 7.81665300e-03 9.58556800e-02
       21 -1    0    0  501  502 +0.0000000000e+00 +0.0000000000e+00 +1.3021627334e+03 1.3021627334e+03 0.0000000000e+00 0.0000e+00 -1.0000e+00
        3 -1    0    0  502    0 -0.0000000000e+00 -0.0000000000e+00 -1.0849374989e+03 1.0849375030e+03 9.5000000000e-02 0.0000e+00 1.0000e+00
  1000022  1    1    2    0    0 -1.8414647067e+02 +3.0940112172e+02 -2.5888317787e+02 7.5620328753e+02 6.1252260000e+02 0.0000e+00 -1.0000e+00
  1000022  1    1    2    0    0 +2.1403858981e+02 -6.7748852345e+02 -1.0336058047e+02 9.4375344367e+02 6.1252260000e+02 0.0000e+00 -1.0000e+00
        3  1    1    2  501    0 -2.9892119144e+01 +3.6808740173e+02 +5.7946899290e+02 6.8714350529e+02 9.5000000000e-02 0.0000e+00 -1.0000e+00
<mgrwt>
<rscale>  1 0.78258827E+03</rscale>
<asrwt>0</asrwt>
<pdfrwt beam="1">  1       21 0.20033273E+00 0.78258827E+03</pdfrwt>
<pdfrwt beam="2">  1        3 0.16691346E+00 0.78258827E+03</pdfrwt>
<totfact> 0.13141643E+00</totfact>
</mgrwt>
</event>
<event>
 5      1 +1.8937969e-08 6.16933200e+02 7.81665300e-03 9.87088500e-02
       21 -1    0    0  501  502 +0.0000000000e+00 +0.0000000000e+00 +1.0718774944e+03 1.0718774944e+03 0.0000000000e+00 0.0000e+00 -1.0000e+00
        3 -1    0    0  502    0 -0.0000000000e+00 -0.0000000000e+00 -9.1633424558e+02 9.1633425051e+02 9.5000000000e-02 0.0000e+00 -1.0000e+00
  1000022  1    1    2    0    0 -3.1701985284e+01 +8.9687064831e+01 -5.8812831458e+02 8.5447506423e+02 6.1252260000e+02 0.0000e+00 1.0000e+00
  1000022  1    1    2    0    0 -1.2430622400e+02 +2.8435019759e+01 +6.8874672656e+02 9.3049265260e+02 6.1252260000e+02 0.0000e+00 1.0000e+00
        3  1    1    2  501    0 +1.5600820928e+02 -1.1812208459e+02 +5.4924836857e+01 2.0324402811e+02 9.5000000000e-02 0.0000e+00 1.0000e+00
<mgrwt>
<rscale>  1 0.61693324E+03</rscale>
<asrwt>0</asrwt>
<pdfrwt beam="1">  1       21 0.16490423E+00 0.61693324E+03</pdfrwt>
<pdfrwt beam="2">  1        3 0.14097450E+00 0.61693324E+03</pdfrwt>
<totfact> 0.38055757E+00</totfact>
</mgrwt>
</event>
<event>
 5      1 +1.8937969e-08 9.46656200e+02 7.81665300e-03 9.36906800e-02
       -3 -1    0    0    0  501 -0.0000000000e+00 +0.0000000000e+00 +6.2428788994e+02 6.2428789717e+02 9.5000000000e-02 0.0000e+00 -1.0000e+00
        3 -1    0    0  502    0 +0.0000000000e+00 -0.0000000000e+00 -2.4458040611e+03 2.4458040630e+03 9.5000000000e-02 0.0000e+00 -1.0000e+00
  1000022  1    1    2    0    0 +7.4838930461e+02 -1.5226947507e+02 -1.5713782078e+03 1.8514010780e+03 6.1252260000e+02 0.0000e+00 1.0000e+00
  1000022  1    1    2    0    0 -6.4800276853e+02 -7.6647522631e+01 -3.3366534359e+02 9.5514340691e+02 6.1252260000e+02 0.0000e+00 1.0000e+00
       21  1    1    2  502  501 -1.0038653609e+02 +2.2891699770e+02 +8.3527380163e+01 2.6354747523e+02 0.0000000000e+00 0.0000e+00 1.0000e+00
<mgrwt>
<rscale>  1 0.94665617E+03</rscale>
<asrwt>0</asrwt>
<pdfrwt beam="2">  1        3 0.37627754E+00 0.94665617E+03</pdfrwt>
<pdfrwt beam="1">  1       -3 0.96044293E-01 0.94665617E+03</pdfrwt>
<totfact> 0.37097171E-02</totfact>
</mgrwt>
</event>
<event>
 5      1 +1.8937969e-08 8.08246100e+02 7.81665300e-03 9.54815700e-02
        1 -1    0    0  502    0 +0.0000000000e+00 +0.0000000000e+00 +1.0159189015e+03 1.0159189015e+03 5.0000000000e-03 0.0000e+00 1.0000e+00
       -1 -1    0    0    0  501 -0.0000000000e+00 -0.0000000000e+00 -8.5333117763e+02 8.5333117764e+02 5.0000000000e-03 0.0000e+00 1.0000e+00
  1000022  1    1    2    0    0 +1.8917509534e+02 +4.9792577953e+02 +3.8577597716e+02 8.9873485449e+02 6.1252260000e+02 0.0000e+00 -1.0000e+00
  1000022  1    1    2    0    0 -2.0258267689e+02 -4.7740550878e+02 -5.9263809485e+01 8.0476822466e+02 6.1252260000e+02 0.0000e+00 -1.0000e+00
       21  1    1    2  502  501 +1.3407581545e+01 -2.0520270745e+01 -1.6392444377e+02 1.6574700004e+02 0.0000000000e+00 0.0000e+00 1.0000e+00
<mgrwt>
<rscale>  1 0.80824612E+03</rscale>
<asrwt>0</asrwt>
<pdfrwt beam="1">  1        1 0.15629522E+00 0.80824612E+03</pdfrwt>
<pdfrwt beam="2">  1       -1 0.13128172E+00 0.80824612E+03</pdfrwt>
<totfact> 0.74623057E+00</totfact>
</mgrwt>
</event>
<event>
 5      1 +1.8937969e-08 8.46675900e+02 7.81665300e-03 9.49480900e-02
       -1 -1    0    0    0  501 -0.0000000000e+00 +0.0000000000e+00 +5.0009361169e+02 5.0009361172e+02 5.0000000000e-03 0.0000e+00 1.0000e+00
        1 -1    0    0  502    0 +0.0000000000e+00 -0.0000000000e+00 -1.6162971436e+03 1.6162971436e+03 5.0000000000e-03 0.0000e+00 -1.0000e+00
  1000022  1    1    2    0    0 +3.2990645731e+02 -4.9935565291e+02 -7.4433015867e+02 1.1346389995e+03 6.1252260000e+02 0.0000e+00 1.0000e+00
  1000022  1    1    2    0    0 -3.0969859145e+02 +4.8554108930e+02 -2.7918361989e+02 8.8588418886e+02 6.1252260000e+02 0.0000e+00 -1.0000e+00
       21  1    1    2  502  501 -2.0207865859e+01 +1.3814563611e+01 -9.2689753343e+01 9.5867566910e+01 0.0000000000e+00 0.0000e+00 -1.0000e+00
<mgrwt>
<rscale>  1 0.84667594E+03</rscale>
<asrwt>0</asrwt>
<pdfrwt beam="2">  1        1 0.24866110E+00 0.84667594E+03</pdfrwt>
<pdfrwt beam="1">  1       -1 0.76937480E-01 0.84667594E+03</pdfrwt>
<totfact> 0.94552001E+00</totfact>
</mgrwt>
</event>
<event>
 5      1 +1.8937969e-08 7.99338700e+02 7.81665300e-03 9.56097500e-02
       -1 -1    0    0    0  501 -0.0000000000e+00 +0.0000000000e+00 +4.7940486272e+02 4.7940486274e+02 5.0000000000e-03 0.0000e+00 1.0000e+00
        1 -1    0    0  502    0 +0.0000000000e+00 -0.0000000000e+00 -1.5593818070e+03 1.5593818070e+03 5.0000000000e-03 0.0000e+00 -1.0000e+00
  1000022  1    1    2    0    0 +4.5869710111e+02 -2.1306410217e+02 -3.5896777210e+02 8.7168867098e+02 6.1252260000e+02 0.0000e+00 1.0000e+00
  1000022  1    1    2    0    0 -4.6918343334e+02 +2.3082469283e+02 -5.0604354074e+02 9.5114516956e+02 6.1252260000e+02 0.0000e+00 -1.0000e+00
       21  1    1    2  502  501 +1.0486332227e+01 -1.7760590656e+01 -2.1496563145e+02 2.1595282923e+02 0.0000000000e+00 0.0000e+00 -1.0000e+00
<mgrwt>
<rscale>  1 0.79933868E+03</rscale>
<asrwt>0</asrwt>
<pdfrwt beam="2">  1        1 0.23990489E+00 0.79933868E+03</pdfrwt>
<pdfrwt beam="1">  1       -1 0.73754595E-01 0.79933868E+03</pdfrwt>
<totfact> 0.11364600E+01</totfact>
</mgrwt>
</event>
<event>
 5      1 +1.8937969e-08 7.67071600e+02 7.81665300e-03 9.60894200e-02
       21 -1    0    0  501  502 +0.0000000000e+00 +0.0000000000e+00 +2.4377470876e+03 2.4377470876e+03 0.0000000000e+00 0.0000e+00 -1.0000e+00
        3 -1    0    0  502    0 -0.0000000000e+00 -0.0000000000e+00 -3.7820899635e+02 3.7820900829e+02 9.5000000000e-02 0.0000e+00 1.0000e+00
  1000022  1    1    2    0    0 -1.1257768851e+02 +4.5661526055e+02 +2.3760316018e+02 8.0796684917e+02 6.1252260000e+02 0.0000e+00 -1.0000e+00
  1000022  1    1    2    0    0 +1.1109511191e+02 -4.2238450443e+02 +1.4413138539e+03 1.6258291283e+03 6.1252260000e+02 0.0000e+00 -1.0000e+00
        3  1    1    2  501    0 +1.4825766009e+00 -3.4230756125e+01 +3.8062107720e+02 3.8216011845e+02 9.5000000000e-02 0.0000e+00 -1.0000e+00
<mgrwt>
<rscale>  1 0.76707160E+03</rscale>
<asrwt>0</asrwt>
<pdfrwt beam="1">  1       21 0.37503800E+00 0.76707160E+03</pdfrwt>
<pdfrwt beam="2">  1        3 0.58186002E-01 0.76707160E+03</pdfrwt>
<totfact> 0.12555640E+00</totfact>
</mgrwt>
</event>
<event>
 5      1 +1.8937969e-08 8.59154200e+02 7.81665300e-03 9.47813200e-02
       21 -1    0    0  501  502 +0.0000000000e+00 +0.0000000000e+00 +1.9161695550e+03 1.9161695550e+03 0.0000000000e+00 0.0000e+00 -1.0000e+00
        3 -1    0    0  502    0 -0.0000000000e+00 -0.0000000000e+00 -5.3885953125e+02 5.3885953962e+02 9.5000000000e-02 0.0000e+00 -1.0000e+00
  1000022  1    1    2    0    0 -6.8691152192e+02 +2.5571674284e+02 +6.5046858759e+02 1.1556521148e+03 6.1252260000e+02 0.0000e+00 1.0000e+00
  1000022  1    1    2    0    0 +5.0162796480e+02 -1.0416813953e+02 +3.9685998462e+02 8.9171935006e+02 6.1252260000e+02 0.0000e+00 1.0000e+00
        3  1    1    2  501    0 +1.8528355712e+02 -1.5154860330e+02 +3.2998145153e+02 4.0765762974e+02 9.5000000000e-02 0.0000e+00 1.0000e+00
<mgrwt>
<rscale>  1 0.85915418E+03</rscale>
<asrwt>0</asrwt>
<pdfrwt beam="1">  1       21 0.29479531E+00 0.85915418E+03</pdfrwt>
<pdfrwt beam="2">  1        3 0.82901468E-01 0.85915418E+03</pdfrwt>
<totfact> 0.17877366E+00</totfact>
</mgrwt>
</event>
<event>
 5      1 +1.8937969e-08 8.79291600e+02 7.81665300e-03 9.45184500e-02
        3 -1    0    0  502    0 -0.0000000000e+00 +0.0000000000e+00 +2.5716872541e+03 2.5716872559e+03 9.5000000000e-02 0.0000e+00 1.0000e+00
       21 -1    0    0  501  502 +0.0000000000e+00 -0.0000000000e+00 -6.9722545648e+02 6.9722545648e+02 0.0000000000e+00 0.0000e+00 -1.0000e+00
  1000022  1    1    2    0    0 -3.9645359986e+02 +5.0824388508e+02 +1.0520626809e+03 1.3775003171e+03 6.1252260000e+02 0.0000e+00 -1.0000e+00
  1000022  1    1    2    0    0 +3.5730740598e+02 -5.0591576669e+02 +1.2160270170e+03 1.4958358824e+03 6.1252260000e+02 0.0000e+00 -1.0000e+00
        3  1    1    2  501    0 +3.9146193876e+01 -2.3281183910e+00 -3.9362790029e+02 3.9557651288e+02 9.5000000000e-02 0.0000e+00 -1.0000e+00
<mgrwt>
<rscale>  1 0.87929161E+03</rscale>
<asrwt>0</asrwt>
<pdfrwt beam="2">  1       21 0.10726546E+00 0.87929161E+03</pdfrwt>
<pdfrwt beam="1">  1        3 0.39564419E+00 0.87929161E+03</pdfrwt>
<totfact> 0.35708371E-01</totfact>
</mgrwt>
</event>
<event>
 5      1 +1.8937969e-08 6.88178000e+02 7.81665300e-03 9.73766600e-02
       -3 -1    0    0    0  501 -0.0000000000e+00 +0.0000000000e+00 +4.2445263688e+02 4.2445264751e+02 9.5000000000e-02 0.0000e+00 -1.0000e+00
        3 -1    0    0  502    0 +0.0000000000e+00 -0.0000000000e+00 -2.1462310028e+03 2.1462310049e+03 9.5000000000e-02 0.0000e+00 -1.0000e+00
  1000022  1    1    2    0    0 +2.7988352417e+02 +1.3821373032e+02 -1.6495502891e+03 1.7870752402e+03 6.1252260000e+02 0.0000e+00 1.0000e+00
  1000022  1    1    2    0    0 -2.7608696581e+02 -1.6322739089e+02 -1.4509630310e+02 7.0647297649e+02 6.1252260000e+02 0.0000e+00 1.0000e+00
       21  1    1    2  502  501 -3.7965583644e+00 +2.5013660570e+01 +7.2868226184e+01 7.7135435810e+01 0.0000000000e+00 0.0000e+00 1.0000e+00
<mgrwt>
<rscale>  1 0.68817799E+03</rscale>
<asrwt>0</asrwt>
<pdfrwt beam="2">  1        3 0.33018938E+00 0.68817799E+03</pdfrwt>
<pdfrwt beam="1">  1       -3 0.65300408E-01 0.68817799E+03</pdfrwt>
<totfact> 0.16053354E-01</totfact>
</mgrwt>
</event>
<event>
 5      1 +1.8937969e-08 7.17769900e+02 7.81665300e-03 9.68731700e-02
       -1 -1    0    0    0  501 -0.0000000000e+00 +0.0000000000e+00 +9.6037668502e+02 9.6037668503e+02 5.0000000000e-03 0.0000e+00 -1.0000e+00
        1 -1    0    0  502    0 +0.0000000000e+00 -0.0000000000e+00 -1.3464101341e+03 1.3464101341e+03 5.0000000000e-03 0.0000e+00 1.0000e+00
  1000022  1    1    2    0    0 +9.0133591147e+01 -3.5801169438e+02 -9.4565345083e+02 1.1856394149e+03 6.1252260000e+02 0.0000e+00 1.0000e+00
  1000022  1    1    2    0    0 -1.0175050496e+02 +3.8053259060e+02 +1.9264104208e+02 7.5329458008e+02 6.1252260000e+02 0.0000e+00 -1.0000e+00
       21  1    1    2  502  501 +1.1616913811e+01 -2.2520896220e+01 +3.6697895964e+02 3.6785282420e+02 0.0000000000e+00 0.0000e+00 -1.0000e+00
<mgrwt>
<rscale>  1 0.71776991E+03</rscale>
<asrwt>0</asrwt>
<pdfrwt beam="2">  1        1 0.20714002E+00 0.71776991E+03</pdfrwt>
<pdfrwt beam="1">  1       -1 0.14775026E+00 0.71776991E+03</pdfrwt>
<totfact> 0.31937867E+00</totfact>
</mgrwt>
</event>
<event>
 5      1 +1.8937969e-08 8.53894200e+02 7.81665300e-03 9.48512500e-02
       -3 -1    0    0    0  501 -0.0000000000e+00 +0.0000000000e+00 +1.1182766996e+03 1.1182767036e+03 9.5000000000e-02 0.0000e+00 -1.0000e+00
        3 -1    0    0  502    0 +0.0000000000e+00 -0.0000000000e+00 -1.0063630293e+03 1.0063630338e+03 9.5000000000e-02 0.0000e+00 -1.0000e+00
  1000022  1    1    2    0    0 -3.9606544449e+02 -4.4492231233e+02 -3.3448327220e+02 9.1754383831e+02 6.1252260000e+02 0.0000e+00 1.0000e+00
  1000022  1    1    2    0    0 +4.2454668214e+02 +4.1628036568e+02 +1.0129241199e+02 8.5963557186e+02 6.1252260000e+02 0.0000e+00 1.0000e+00
       21  1    1    2  502  501 -2.8481237651e+01 +2.8641946644e+01 +3.4510453053e+02 3.4746032723e+02 0.0000000000e+00 0.0000e+00 -1.0000e+00
<mgrwt>
<rscale>  1 0.85389422E+03</rscale>
<asrwt>0</asrwt>
<pdfrwt beam="2">  1        3 0.15482508E+00 0.85389422E+03</pdfrwt>
<pdfrwt beam="1">  1       -3 0.17204257E+00 0.85389422E+03</pdfrwt>
<totfact> 0.17103878E-01</totfact>
</mgrwt>
</event>
<event>
 5      1 +1.8937969e-08 8.75521200e+02 7.81665300e-03 9.45670900e-02
        1 -1    0    0  502    0 +0.0000000000e+00 +0.0000000000e+00 +1.2098251954e+03 1.2098251954e+03 5.0000000000e-03 0.0000e+00 -1.0000e+00
       -1 -1    0    0    0  501 -0.0000000000e+00 -0.0000000000e+00 -1.2692934933e+03 1.2692934933e+03 5.0000000000e-03 0.0000e+00 1.0000e+00
  1000022  1    1    2    0    0 -4.3237450977e+02 -1.3182341545e+02 +5.2694453628e+02 9.2583994804e+02 6.1252260000e+02 0.0000e+00 -1.0000e+00
  1000022  1    1    2    0    0 +6.8143997611e+02 -1.2446244565e+02 -7.1981006513e+02 1.1718198696e+03 6.1252260000e+02 0.0000e+00 1.0000e+00
       21  1    1    2  502  501 -2.4906546634e+02 +2.5628586110e+02 +1.3339723096e+02 3.8145887112e+02 0.0000000000e+00 0.0000e+00 -1.0000e+00
<mgrwt>
<rscale>  1 0.87552119E+03</rscale>
<asrwt>0</asrwt>
<pdfrwt beam="1">  1        1 0.18612695E+00 0.87552119E+03</pdfrwt>
<pdfrwt beam="2">  1       -1 0.19527592E+00 0.87552119E+03</pdfrwt>
<totfact> 0.17458707E+00</totfact>
</mgrwt>
</event>
<event>
 5      1 +1.8937969e-08 6.42095300e+02 7.81665300e-03 9.82172600e-02
       -2 -1    0    0    0  501 -0.0000000000e+00 +0.0000000000e+00 +1.1986700708e+03 1.1986700708e+03 2.5000000000e-03 0.0000e+00 1.0000e+00
        2 -1    0    0  502    0 +0.0000000000e+00 -0.0000000000e+00 -6.9054987965e+02 6.9054987966e+02 2.5000000000e-03 0.0000e+00 -1.0000e+00
  1000022  1    1    2    0    0 -8.5414444080e+01 -7.9480852568e+01 -3.1702067208e+02 6.9949901731e+02 6.1252260000e+02 0.0000e+00 -1.0000e+00
  1000022  1    1    2    0    0 +2.1001570901e+02 +3.5546011364e+01 +8.3497996712e+02 1.0572348831e+03 6.1252260000e+02 0.0000e+00 1.0000e+00
       21  1    1    2  502  501 -1.2460126493e+02 +4.3934841205e+01 -9.8391039283e+00 1.3248605006e+02 0.0000000000e+00 0.0000e+00 1.0000e+00
<mgrwt>
<rscale>  1 0.64209531E+03</rscale>
<asrwt>0</asrwt>
<pdfrwt beam="2">  1        2 0.10623844E+00 0.64209531E+03</pdfrwt>
<pdfrwt beam="1">  1       -2 0.18441078E+00 0.64209531E+03</pdfrwt>
<totfact> 0.72812284E+00</totfact>
</mgrwt>
</event>
<event>
 5      1 +1.8937969e-08 1.43826900e+03 7.81665300e-03 8.92657400e-02
       -2 -1    0    0    0  501 -0.0000000000e+00 +0.0000000000e+00 +1.2677198928e+03 1.2677198928e+03 2.5000000000e-03 0.0000e+00 1.0000e+00
        2 -1    0    0  502    0 +0.0000000000e+00 -0.0000000000e+00 -2.5623259110e+03 2.5623259110e+03 2.5000000000e-03 0.0000e+00 -1.0000e+00
  1000022  1    1    2    0    0 -7.0819994785e+02 +1.1265711228e+03 -1.7003133242e+03 2.2443170446e+03 6.1252260000e+02 0.0000e+00 -1.0000e+00
  1000022  1    1    2    0    0 +6.7037937210e+02 -1.1064019313e+03 +4.7168418872e+02 1.5070513082e+03 6.1252260000e+02 0.0000e+00 1.0000e+00
       21  1    1    2  502  501 +3.7820575755e+01 -2.0169191452e+01 -6.5976882815e+01 7.8677451028e+01 0.0000000000e+00 0.0000e+00 -1.0000e+00
<mgrwt>
<rscale>  1 0.14382693E+04</rscale>
<asrwt>0</asrwt>
<pdfrwt beam="2">  1        2 0.39420398E+00 0.14382693E+04</pdfrwt>
<pdfrwt beam="1">  1       -2 0.19503383E+00 0.14382693E+04</pdfrwt>
<totfact> 0.43495710E-01</totfact>
</mgrwt>
</event>
<event>
 5      1 +1.8937969e-08 6.83033800e+02 7.81665300e-03 9.74669500e-02
        3 -1    0    0  502    0 -0.0000000000e+00 +0.0000000000e+00 +4.4256726573e+02 4.4256727593e+02 9.5000000000e-02 0.0000e+00 1.0000e+00
       21 -1    0    0  501  502 +0.0000000000e+00 -0.0000000000e+00 -1.8952192548e+03 1.8952192548e+03 0.0000000000e+00 0.0000e+00 1.0000e+00
  1000022  1    1    2    0    0 +1.6136649162e+02 -2.4713174304e+02 +1.6204830529e+01 6.8011747153e+02 6.1252260000e+02 0.0000e+00 -1.0000e+00
  1000022  1    1    2    0    0 -1.4046854814e+02 +3.0271961090e+02 -1.2561252853e+03 1.4368038292e+03 6.1252260000e+02 0.0000e+00 -1.0000e+00
        3  1    1    2  501    0 -2.0897943471e+01 -5.5587867861e+01 -2.1273153428e+02 2.2086522994e+02 9.5000000000e-02 0.0000e+00 -1.0000e+00
<mgrwt>
<rscale>  1 0.68303383E+03</rscale>
<asrwt>0</asrwt>
<pdfrwt beam="2">  1       21 0.29157220E+00 0.68303383E+03</pdfrwt>
<pdfrwt beam="1">  1        3 0.68087272E-01 0.68303383E+03</pdfrwt>
<totfact> 0.30358382E+00</totfact>
</mgrwt>
</event>
<event>
 5      1 +1.8937969e-08 8.59419100e+02 7.81665300e-03 9.47778100e-02
        3 -1    0    0  502    0 -0.0000000000e+00 +0.0000000000e+00 +2.6718977916e+03 2.6718977933e+03 9.5000000000e-02 0.0000e+00 1.0000e+00
       21 -1    0    0  501  502 +0.0000000000e+00 -0.0000000000e+00 -3.1810516294e+02 3.1810516294e+02 0.0000000000e+00 0.0000e+00 1.0000e+00
  1000022  1    1    2    0    0 +6.4214827604e+02 -8.0942057054e+01 +9.4125481248e+02 1.2961676522e+03 6.1252260000e+02 0.0000e+00 -1.0000e+00
  1000022  1    1    2    0    0 -5.5838584139e+02 +1.2044819424e+02 +1.2155088019e+03 1.4761260442e+03 6.1252260000e+02 0.0000e+00 -1.0000e+00
        3  1    1    2  501    0 -8.3762434643e+01 -3.9506137187e+01 +1.9702901431e+02 2.1770925988e+02 9.5000000000e-02 0.0000e+00 -1.0000e+00
<mgrwt>
<rscale>  1 0.85941908E+03</rscale>
<asrwt>0</asrwt>
<pdfrwt beam="2">  1       21 0.48939258E-01 0.85941908E+03</pdfrwt>
<pdfrwt beam="1">  1        3 0.41106119E+00 0.85941908E+03</pdfrwt>
<totfact> 0.18239507E+00</totfact>
</mgrwt>
</event>
<event>
 5      1 +1.8937969e-08 8.72136400e+02 7.81665300e-03 9.46109900e-02
        3 -1    0    0  502    0 +0.0000000000e+00 +0.0000000000e+00 +5.5505111870e+02 5.5505112683e+02 9.5000000000e-02 0.0000e+00 -1.0000e+00
       -3 -1    0    0    0  501 -0.0000000000e+00 -0.0000000000e+00 -1.7104922571e+03 1.7104922598e+03 9.5000000000e-02 0.0000e+00 -1.0000e+00
  1000022  1    1    2    0    0 +5.9768165176e+02 -3.0465441765e+02 -6.7725156075e+02 1.1330892653e+03 6.1252260000e+02 0.0000e+00 -1.0000e+00
  1000022  1    1    2    0    0 -5.3839334595e+02 +2.4097052205e+02 -2.4711627903e+02 8.8554196870e+02 6.1252260000e+02 0.0000e+00 -1.0000e+00
       21  1    1    2  502  501 -5.9288305810e+01 +6.3683895602e+01 -2.3107329864e+02 2.4691215262e+02 0.0000000000e+00 0.0000e+00 1.0000e+00
<mgrwt>
<rscale>  1 0.87213639E+03</rscale>
<asrwt>0</asrwt>
<pdfrwt beam="1">  1        3 0.85392481E-01 0.87213639E+03</pdfrwt>
<pdfrwt beam="2">  1       -3 0.26315265E+00 0.87213639E+03</pdfrwt>
<totfact> 0.20031006E-01</totfact>
</mgrwt>
</event>
<event>
 5      1 +1.8937969e-08 8.04985400e+02 7.81665300e-03 9.55282900e-02
       -2 -1    0    0    0  501 -0.0000000000e+00 +0.0000000000e+00 +6.1851985916e+02 6.1851985917e+02 2.5000000000e-03 0.0000e+00 1.0000e+00
        2 -1    0    0  502    0 +0.0000000000e+00 -0.0000000000e+00 -1.0972449026e+03 1.0972449026e+03 2.5000000000e-03 0.0000e+00 -1.0000e+00
  1000022  1    1    2    0    0 -4.5197021880e+02 -2.4703500135e+02 -1.2654950524e+02 8.1024816159e+02 6.1252260000e+02 0.0000e+00 1.0000e+00
  1000022  1    1    2    0    0 +4.5968818677e+02 +2.6737556819e+02 -3.3426463589e+02 8.7733671178e+02 6.1252260000e+02 0.0000e+00 -1.0000e+00
       21  1    1    2  502  501 -7.7179679637e+00 -2.0340566833e+01 -1.7910902307e+01 2.8179888396e+01 0.0000000000e+00 0.0000e+00 -1.0000e+00
<mgrwt>
<rscale>  1 0.80498540E+03</rscale>
<asrwt>0</asrwt>
<pdfrwt beam="2">  1        2 0.16880691E+00 0.80498540E+03</pdfrwt>
<pdfrwt beam="1">  1       -2 0.95156902E-01 0.80498540E+03</pdfrwt>
<totfact> 0.20547647E+01</totfact>
</mgrwt>
</event>
<event>
 5      1 +1.8937969e-08 7.63750000e+02 7.81665300e-03 9.61402200e-02
        3 -1    0    0  502    0 +0.0000000000e+00 +0.0000000000e+00 +5.4862448049e+02 5.4862448872e+02 9.5000000000e-02 0.0000e+00 -1.0000e+00
       -3 -1    0    0    0  501 -0.0000000000e+00 -0.0000000000e+00 -1.3957896758e+03 1.3957896790e+03 9.5000000000e-02 0.0000e+00 -1.0000e+00
  1000022  1    1    2    0    0 +1.8074582162e+02 +4.1933273779e+02 +5.8827220954e+00 7.6402064039e+02 6.1252260000e+02 0.0000e+00 1.0000e+00
  1000022  1    1    2    0    0 -1.3455533238e+02 -4.3681676608e+02 -8.2017904352e+02 1.1210671807e+03 6.1252260000e+02 0.0000e+00 1.0000e+00
       21  1    1    2  502  501 -4.6190489240e+01 +1.7484028292e+01 -3.2868873867e+01 5.9326346684e+01 0.0000000000e+00 0.0000e+00 1.0000e+00
<mgrwt>
<rscale>  1 0.76374997E+03</rscale>
<asrwt>0</asrwt>
<pdfrwt beam="1">  1        3 0.84403768E-01 0.76374997E+03</pdfrwt>
<pdfrwt beam="2">  1       -3 0.21473687E+00 0.76374997E+03</pdfrwt>
<totfact> 0.39838028E-01</totfact>
</mgrwt>
</event>
<event>
 5      1 +1.8937969e-08 8.23122200e+02 7.81665300e-03 9.52713900e-02
       -1 -1    0    0    0  501 -0.0000000000e+00 +0.0000000000e+00 +7.5314297180e+02 7.5314297182e+02 5.0000000000e-03 0.0000e+00 1.0000e+00
        1 -1    0    0  502    0 +0.0000000000e+00 -0.0000000000e+00 -1.2322853464e+03 1.2322853464e+03 5.0000000000e-03 0.0000e+00 1.0000e+00
  1000022  1    1    2    0    0 -4.6704503406e+01 -5.4174865231e+02 -4.0412755960e+02 9.1333232334e+02 6.1252260000e+02 0.0000e+00 -1.0000e+00
  1000022  1    1    2    0    0 +6.8417177222e+01 +5.4891567921e+02 +1.5600542230e+02 8.3994699852e+02 6.1252260000e+02 0.0000e+00 -1.0000e+00
       21  1    1    2  502  501 -2.1712673816e+01 -7.1670269083e+00 -2.3102023728e+02 2.3214899636e+02 0.0000000000e+00 0.0000e+00 1.0000e+00
<mgrwt>
<rscale>  1 0.82312224E+03</rscale>
<asrwt>0</asrwt>
<pdfrwt beam="2">  1        1 0.18958236E+00 0.82312224E+03</pdfrwt>
<pdfrwt beam="1">  1       -1 0.11586815E+00 0.82312224E+03</pdfrwt>
<totfact> 0.69992472E+00</totfact>
</mgrwt>
</event>
<event>
 5      1 +1.8937969e-08 8.17461500e+02 7.81665300e-03 9.53508100e-02
        3 -1    0    0  502    0 +0.0000000000e+00 +0.0000000000e+00 +1.1767866864e+03 1.1767866902e+03 9.5000000000e-02 0.0000e+00 1.0000e+00
       -3 -1    0    0    0  501 -0.0000000000e+00 -0.0000000000e+00 -7.9210937187e+02 7.9210937756e+02 9.5000000000e-02 0.0000e+00 1.0000e+00
  1000022  1    1    2    0    0 -3.3219413624e+02 -4.2755180769e+02 -1.2621606350e+02 8.2720488551e+02 6.1252260000e+02 0.0000e+00 -1.0000e+00
  1000022  1    1    2    0    0 +3.4959939812e+02 +4.1351920077e+02 +2.1554095779e+02 8.4549376613e+02 6.1252260000e+02 0.0000e+00 -1.0000e+00
       21  1    1    2  502  501 -1.7405261880e+01 +1.4032606918e+01 +2.9535242024e+02 2.9619741616e+02 0.0000000000e+00 0.0000e+00 1.0000e+00
<mgrwt>
<rscale>  1 0.81746149E+03</rscale>
<asrwt>0</asrwt>
<pdfrwt beam="1">  1        3 0.18104411E+00 0.81746149E+03</pdfrwt>
<pdfrwt beam="2">  1       -3 0.12186298E+00 0.81746149E+03</pdfrwt>
<totfact> 0.27418240E-01</totfact>
</mgrwt>
</event>
<event>
 5      1 +1.8937969e-08 9.10138300e+02 7.81665300e-03 9.41299600e-02
       -3 -1    0    0    0  501 -0.0000000000e+00 +0.0000000000e+00 +1.1081683411e+03 1.1081683451e+03 9.5000000000e-02 0.0000e+00 1.0000e+00
        3 -1    0    0  502    0 +0.0000000000e+00 -0.0000000000e+00 -7.9584897918e+02 7.9584898485e+02 9.5000000000e-02 0.0000e+00 1.0000e+00
  1000022  1    1    2    0    0 +2.3558094075e+02 +6.1327925756e+02 +6.4413403386e+01 9.0052365290e+02 6.1252260000e+02 0.0000e+00 1.0000e+00
  1000022  1    1    2    0    0 -2.2491045887e+02 -6.5550711484e+02 +2.1682202588e+02 9.4998422015e+02 6.1252260000e+02 0.0000e+00 1.0000e+00
       21  1    1    2  502  501 -1.0670481878e+01 +4.2227857283e+01 +3.1083932633e+01 5.3509456941e+01 0.0000000000e+00 0.0000e+00 -1.0000e+00
<mgrwt>
<rscale>  1 0.91013834E+03</rscale>
<asrwt>0</asrwt>
<pdfrwt beam="2">  1        3 0.12243831E+00 0.91013834E+03</pdfrwt>
<pdfrwt beam="1">  1       -3 0.17048744E+00 0.91013834E+03</pdfrwt>
<totfact> 0.31697257E-01</totfact>
</mgrwt>
</event>
<event>
 5      1 +1.8937969e-08 8.42882800e+02 7.81665300e-03 9.49993900e-02
        3 -1    0    0  502    0 +0.0000000000e+00 +0.0000000000e+00 +9.4458241581e+02 9.4458242059e+02 9.5000000000e-02 0.0000e+00 1.0000e+00
       -3 -1    0    0    0  501 -0.0000000000e+00 -0.0000000000e+00 -1.2662137822e+03 1.2662137858e+03 9.5000000000e-02 0.0000e+00 1.0000e+00
  1000022  1    1    2    0    0 -4.5127307855e+02 +3.1966913251e+02 +2.2221996837e+02 8.5463524123e+02 6.1252260000e+02 0.0000e+00 -1.0000e+00
  1000022  1    1    2    0    0 +3.7979995813e+02 -5.1570260169e+02 -1.3405136073e+02 8.9629843490e+02 6.1252260000e+02 0.0000e+00 -1.0000e+00
       21  1    1    2  502  501 +7.1473120425e+01 +1.9603346918e+02 -4.0979997404e+02 4.5986253023e+02 0.0000000000e+00 0.0000e+00 1.0000e+00
<mgrwt>
<rscale>  1 0.84288284E+03</rscale>
<asrwt>0</asrwt>
<pdfrwt beam="1">  1        3 0.14532037E+00 0.84288284E+03</pdfrwt>
<pdfrwt beam="2">  1       -3 0.19480212E+00 0.84288284E+03</pdfrwt>
<totfact> 0.14249997E-01</totfact>
</mgrwt>
</event>
<event>
 5      1 +1.8937969e-08 6.20640100e+02 7.81665300e-03 9.86348600e-02
       -2 -1    0    0    0  501 -0.0000000000e+00 +0.0000000000e+00 +2.5823157724e+02 2.5823157725e+02 2.5000000000e-03 0.0000e+00 -1.0000e+00
        2 -1    0    0  502    0 +0.0000000000e+00 -0.0000000000e+00 -2.3938047119e+03 2.3938047119e+03 2.5000000000e-03 0.0000e+00 1.0000e+00
  1000022  1    1    2    0    0 +7.8773327004e+01 -5.1969697530e+01 -3.2771879200e+02 7.0106321302e+02 6.1252260000e+02 0.0000e+00 -1.0000e+00
  1000022  1    1    2    0    0 -9.8959813350e+01 +5.8902993720e+01 -1.2899195839e+03 1.4325987141e+03 6.1252260000e+02 0.0000e+00 1.0000e+00
       21  1    1    2  502  501 +2.0186486346e+01 -6.9332961894e+00 -5.1793475881e+02 5.1837436203e+02 0.0000000000e+00 0.0000e+00 1.0000e+00
<mgrwt>
<rscale>  1 0.62064008E+03</rscale>
<asrwt>0</asrwt>
<pdfrwt beam="2">  1        2 0.36827763E+00 0.62064008E+03</pdfrwt>
<pdfrwt beam="1">  1       -2 0.39727937E-01 0.62064008E+03</pdfrwt>
<totfact> 0.25556352E+01</totfact>
</mgrwt>
</event>
<event>
 5      1 +1.8937969e-08 1.05816100e+03 7.81665300e-03 9.24695900e-02
       -2 -1    0    0    0  501 -0.0000000000e+00 +0.0000000000e+00 +1.7182378523e+03 1.7182378523e+03 2.5000000000e-03 0.0000e+00 -1.0000e+00
        2 -1    0    0  502    0 +0.0000000000e+00 -0.0000000000e+00 -7.6777832499e+02 7.6777832499e+02 2.5000000000e-03 0.0000e+00 1.0000e+00
  1000022  1    1    2    0    0 +3.3396487401e+02 -7.7787800465e+02 +7.3541921906e+01 1.0474822562e+03 6.1252260000e+02 0.0000e+00 1.0000e+00
  1000022  1    1    2    0    0 -3.3310710467e+02 +8.3012909652e+02 +8.0818654571e+02 1.3521923267e+03 6.1252260000e+02 0.0000e+00 -1.0000e+00
       21  1    1    2  502  501 -8.5776933781e-01 -5.2251091869e+01 +6.8731059684e+01 8.6341594466e+01 0.0000000000e+00 0.0000e+00 1.0000e+00
<mgrwt>
<rscale>  1 0.10581610E+04</rscale>
<asrwt>0</asrwt>
<pdfrwt beam="2">  1        2 0.11811974E+00 0.10581610E+04</pdfrwt>
<pdfrwt beam="1">  1       -2 0.26434429E+00 0.10581610E+04</pdfrwt>
<totfact> 0.18950327E+00</totfact>
</mgrwt>
</event>
<event>
 5      1 +1.8937969e-08 6.35042900e+02 7.81665300e-03 9.83525700e-02
       21 -1    0    0  501  502 +0.0000000000e+00 +0.0000000000e+00 +1.6787989220e+03 1.6787989220e+03 0.0000000000e+00 0.0000e+00 -1.0000e+00
        3 -1    0    0  502    0 -0.0000000000e+00 -0.0000000000e+00 -1.7503546479e+03 1.7503546505e+03 9.5000000000e-02 0.0000e+00 -1.0000e+00
  1000022  1    1    2    0    0 -8.8678460847e+01 +5.7950247586e+01 -4.1256574674e+02 7.4606737733e+02 6.1252260000e+02 0.0000e+00 1.0000e+00
  1000022  1    1    2    0    0 +2.0762849265e+02 -3.7712336864e+00 -1.0785032529e+03 1.2575678969e+03 6.1252260000e+02 0.0000e+00 -1.0000e+00
        3  1    1    2  501    0 -1.1895003180e+02 -5.4179013900e+01 +1.4195132737e+03 1.4255182983e+03 9.5000000000e-02 0.0000e+00 -1.0000e+00
<mgrwt>
<rscale>  1 0.63504294E+03</rscale>
<asrwt>0</asrwt>
<pdfrwt beam="1">  1       21 0.25827676E+00 0.63504294E+03</pdfrwt>
<pdfrwt beam="2">  1        3 0.26928533E+00 0.63504294E+03</pdfrwt>
<totfact> 0.13879712E-01</totfact>
</mgrwt>
</event>
<event>
 5      1 +1.8937969e-08 8.19784400e+02 7.81665300e-03 9.53181300e-02
        3 -1    0    0  502    0 +0.0000000000e+00 +0.0000000000e+00 +1.5277445861e+03 1.5277445890e+03 9.5000000000e-02 0.0000e+00 -1.0000e+00
       -3 -1    0    0    0  501 -0.0000000000e+00 -0.0000000000e+00 -5.5071244313e+02 5.5071245132e+02 9.5000000000e-02 0.0000e+00 -1.0000e+00
  1000022  1    1    2    0    0 -2.9803694157e+02 +4.1337793066e+02 +6.0989337893e+01 7.9913138278e+02 6.1252260000e+02 0.0000e+00 -1.0000e+00
  1000022  1    1    2    0    0 +3.2327999366e+02 -4.5763314470e+02 +9.0328740813e+02 1.2268048446e+03 6.1252260000e+02 0.0000e+00 -1.0000e+00
       21  1    1    2  502  501 -2.5243052092e+01 +4.4255214048e+01 +1.2755396921e+01 5.2520813016e+01 0.0000000000e+00 0.0000e+00 -1.0000e+00
<mgrwt>
<rscale>  1 0.81978437E+03</rscale>
<asrwt>0</asrwt>
<pdfrwt beam="1">  1        3 0.23503762E+00 0.81978437E+03</pdfrwt>
<pdfrwt beam="2">  1       -3 0.84724994E-01 0.81978437E+03</pdfrwt>
<totfact> 0.29984307E-01</totfact>
</mgrwt>
</event>
<event>
 5      1 +1.8937969e-08 8.52359500e+02 7.81665300e-03 9.48717600e-02
        3 -1    0    0  502    0 +0.0000000000e+00 +0.0000000000e+00 +7.1719957660e+02 7.1719958289e+02 9.5000000000e-02 0.0000e+00 1.0000e+00
       -3 -1    0    0    0  501 -0.0000000000e+00 -0.0000000000e+00 -1.1206982605e+03 1.1206982646e+03 9.5000000000e-02 0.0000e+00 1.0000e+00
  1000022  1    1    2    0    0 -3.5600916177e+02 +4.8367167236e+02 +1.7944295011e+01 8.5801325348e+02 6.1252260000e+02 0.0000e+00 -1.0000e+00
  1000022  1    1    2    0    0 +3.6209122980e+02 -4.6352090596e+02 -4.3570907294e+02 9.5445692449e+02 6.1252260000e+02 0.0000e+00 -1.0000e+00
       21  1    1    2  502  501 -6.0820680266e+00 -2.0150766400e+01 +1.4266093993e+01 2.5427669492e+01 0.0000000000e+00 0.0000e+00 -1.0000e+00
<mgrwt>
<rscale>  1 0.85235953E+03</rscale>
<asrwt>0</asrwt>
<pdfrwt beam="1">  1        3 0.11033840E+00 0.85235953E+03</pdfrwt>
<pdfrwt beam="2">  1       -3 0.17241512E+00 0.85235953E+03</pdfrwt>
<totfact> 0.39726044E-01</totfact>
</mgrwt>
</event>
<event>
 5      1 +1.8937969e-08 8.64794000e+02 7.81665300e-03 9.47069300e-02
        3 -1    0    0  502    0 +0.0000000000e+00 +0.0000000000e+00 +2.0091777406e+03 2.0091777429e+03 9.5000000000e-02 0.0000e+00 -1.0000e+00
       -3 -1    0    0    0  501 -0.0000000000e+00 -0.0000000000e+00 -4.2554400412e+02 4.2554401473e+02 9.5000000000e-02 0.0000e+00 -1.0000e+00
  1000022  1    1    2    0    0 -9.6022221594e+01 -5.9590342740e+02 +5.2864376931e+02 1.0094401083e+03 6.1252260000e+02 0.0000e+00 1.0000e+00
  1000022  1    1    2    0    0 +1.7365068495e+02 +5.9825995922e+02 +9.1439955050e+02 1.2646659688e+03 6.1252260000e+02 0.0000e+00 1.0000e+00
       21  1    1    2  502  501 -7.7628463358e+01 -2.3565318265e+00 +1.4059041668e+02 1.6061568052e+02 0.0000000000e+00 0.0000e+00 -1.0000e+00
<mgrwt>
<rscale>  1 0.86479397E+03</rscale>
<asrwt>0</asrwt>
<pdfrwt beam="1">  1        3 0.30910427E+00 0.86479397E+03</pdfrwt>
<pdfrwt beam="2">  1       -3 0.65468309E-01 0.86479397E+03</pdfrwt>
<totfact> 0.20369979E-01</totfact>
</mgrwt>
</event>
<event>
 5      1 +1.8937969e-08 6.79661400e+02 7.81665300e-03 9.75266000e-02
        3 -1    0    0  502    0 +0.0000000000e+00 +0.0000000000e+00 +1.2835123322e+03 1.2835123357e+03 9.5000000000e-02 0.0000e+00 1.0000e+00
       -3 -1    0    0    0  501 -0.0000000000e+00 -0.0000000000e+00 -5.9567312258e+02 5.9567313016e+02 9.5000000000e-02 0.0000e+00 1.0000e+00
  1000022  1    1    2    0    0 +8.3674039012e+01 +2.6570444697e+02 +8.5371078389e+02 1.0870171277e+03 6.1252260000e+02 0.0000e+00 -1.0000e+00
  1000022  1    1    2    0    0 -1.2722188415e+02 -2.7070617292e+02 -2.2565838137e+02 7.1803403851e+02 6.1252260000e+02 0.0000e+00 -1.0000e+00
       21  1    1    2  502  501 +4.3547845141e+01 +5.0017259472e+00 +5.9786807113e+01 7.4134299644e+01 0.0000000000e+00 0.0000e+00 -1.0000e+00
<mgrwt>
<rscale>  1 0.67966135E+03</rscale>
<asrwt>0</asrwt>
<pdfrwt beam="1">  1        3 0.19746344E+00 0.67966135E+03</pdfrwt>
<pdfrwt beam="2">  1       -3 0.91642019E-01 0.67966135E+03</pdfrwt>
<totfact> 0.42724155E-01</totfact>
</mgrwt>
</event>
<event>
 5      1 +1.8937969e-08 7.98443800e+02 7.81665300e-03 9.56227200e-02
       -3 -1    0    0    0  501 -0.0000000000e+00 +0.0000000000e+00 +7.3669491188e+02 7.3669491801e+02 9.5000000000e-02 0.0000e+00 -1.0000e+00
        3 -1    0    0  502    0 +0.0000000000e+00 -0.0000000000e+00 -1.1015242298e+03 1.1015242339e+03 9.5000000000e-02 0.0000e+00 -1.0000e+00
  1000022  1    1    2    0    0 +2.5695660100e+02 +4.5393003945e+02 +1.6830674613e+02 8.2194298574e+02 6.1252260000e+02 0.0000e+00 1.0000e+00
  1000022  1    1    2    0    0 -2.7898359004e+02 -4.2521176313e+02 -5.5813964458e+02 9.7228631862e+02 6.1252260000e+02 0.0000e+00 1.0000e+00
       21  1    1    2  502  501 +2.2026989035e+01 -2.8718276318e+01 +2.5003580582e+01 4.3989847494e+01 0.0000000000e+00 0.0000e+00 -1.0000e+00
<mgrwt>
<rscale>  1 0.79844379E+03</rscale>
<asrwt>0</asrwt>
<pdfrwt beam="2">  1        3 0.16946527E+00 0.79844379E+03</pdfrwt>
<pdfrwt beam="1">  1       -3 0.11333768E+00 0.79844379E+03</pdfrwt>
<totfact> 0.39262419E-01</totfact>
</mgrwt>
</event>
<event>
 5      1 +1.8937969e-08 7.96938600e+02 7.81665300e-03 9.56445900e-02
       -3 -1    0    0    0  501 -0.0000000000e+00 +0.0000000000e+00 +1.3127648396e+03 1.3127648430e+03 9.5000000000e-02 0.0000e+00 1.0000e+00
        3 -1    0    0  502    0 +0.0000000000e+00 -0.0000000000e+00 -6.0551871322e+02 6.0551872067e+02 9.5000000000e-02 0.0000e+00 1.0000e+00
  1000022  1    1    2    0    0 -5.1587242998e+02 -5.4141264773e+01 -2.9712519189e+01 8.0319512565e+02 6.1252260000e+02 0.0000e+00 -1.0000e+00
  1000022  1    1    2    0    0 +4.8935143127e+02 +4.0154378504e+01 +6.3768834493e+02 1.0113889253e+03 6.1252260000e+02 0.0000e+00 -1.0000e+00
       21  1    1    2  502  501 +2.6520998713e+01 +1.3986886269e+01 +9.9270300637e+01 1.0369951277e+02 0.0000000000e+00 0.0000e+00 -1.0000e+00
<mgrwt>
<rscale>  1 0.79693861E+03</rscale>
<asrwt>0</asrwt>
<pdfrwt beam="2">  1        3 0.93156726E-01 0.79693861E+03</pdfrwt>
<pdfrwt beam="1">  1       -3 0.20196382E+00 0.79693861E+03</pdfrwt>
<totfact> 0.38030931E-01</totfact>
</mgrwt>
</event>
<event>
 5      1 +1.8937969e-08 7.48711500e+02 7.81665300e-03 9.63737400e-02
       -1 -1    0    0    0  501 -0.0000000000e+00 +0.0000000000e+00 +8.0526849648e+02 8.0526849649e+02 5.0000000000e-03 0.0000e+00 -1.0000e+00
        1 -1    0    0  502    0 +0.0000000000e+00 -0.0000000000e+00 -8.3861993330e+02 8.3861993331e+02 5.0000000000e-03 0.0000e+00 -1.0000e+00
  1000022  1    1    2    0    0 -2.5929857825e+02 -3.4382337281e+02 +2.4387254215e+02 7.8746937509e+02 6.1252260000e+02 0.0000e+00 1.0000e+00
  1000022  1    1    2    0    0 +2.3101581547e+02 +3.6383765093e+02 -3.0825349469e+02 8.0990758468e+02 6.1252260000e+02 0.0000e+00 1.0000e+00
       21  1    1    2  502  501 +2.8282762784e+01 -2.0014278119e+01 +3.1029515715e+01 4.6511470035e+01 0.0000000000e+00 0.0000e+00 1.0000e+00
<mgrwt>
<rscale>  1 0.74871154E+03</rscale>
<asrwt>0</asrwt>
<pdfrwt beam="2">  1        1 0.12901845E+00 0.74871154E+03</pdfrwt>
<pdfrwt beam="1">  1       -1 0.12388746E+00 0.74871154E+03</pdfrwt>
<totfact> 0.12075511E+01</totfact>
</mgrwt>
</event>
<event>
 5      1 +1.8937969e-08 7.79096800e+02 7.81665300e-03 9.59077600e-02
        3 -1    0    0  502    0 +0.0000000000e+00 +0.0000000000e+00 +7.5575713433e+02 7.5575714030e+02 9.5000000000e-02 0.0000e+00 1.0000e+00
       -3 -1    0    0    0  501 -0.0000000000e+00 -0.0000000000e+00 -1.1632074707e+03 1.1632074746e+03 9.5000000000e-02 0.0000e+00 1.0000e+00
  1000022  1    1    2    0    0 -4.7878891419e+02 +5.0783292796e+01 +2.6282262133e+02 8.2223927963e+02 6.1252260000e+02 0.0000e+00 -1.0000e+00
  1000022  1    1    2    0    0 +4.8298780306e+02 -5.0659139437e+00 -5.1479927038e+02 9.3461495049e+02 6.1252260000e+02 0.0000e+00 -1.0000e+00
       21  1    1    2  502  501 -4.1988888736e+00 -4.5717378853e+01 -1.5547368733e+02 1.6211038477e+02 0.0000000000e+00 0.0000e+00 1.0000e+00
<mgrwt>
<rscale>  1 0.77909677E+03</rscale>
<asrwt>0</asrwt>
<pdfrwt beam="1">  1        3 0.11627033E+00 0.77909677E+03</pdfrwt>
<pdfrwt beam="2">  1       -3 0.17895500E+00 0.77909677E+03</pdfrwt>
<totfact> 0.31759938E-01</totfact>
</mgrwt>
</event>
<event>
 5      1 +1.8937969e-08 1.30602200e+03 7.81665300e-03 9.02480300e-02
       -2 -1    0    0    0  501 -0.0000000000e+00 +0.0000000000e+00 +6.6145672753e+02 6.6145672754e+02 2.5000000000e-03 0.0000e+00 -1.0000e+00
        2 -1    0    0  502    0 +0.0000000000e+00 -0.0000000000e+00 -3.2421201238e+03 3.2421201238e+03 2.5000000000e-03 0.0000e+00 1.0000e+00
  1000022  1    1    2    0    0 -9.6143541066e+02 +5.4685818915e+02 -1.1165073242e+03 1.6867674613e+03 6.1252260000e+02 0.0000e+00 1.0000e+00
  1000022  1    1    2    0    0 +1.0300149242e+03 -6.0503694528e+02 -1.5779675561e+03 2.0717543273e+03 6.1252260000e+02 0.0000e+00 -1.0000e+00
       21  1    1    2  502  501 -6.8579513535e+01 +5.8178756138e+01 +1.1381148399e+02 1.4505506276e+02 0.0000000000e+00 0.0000e+00 -1.0000e+00
<mgrwt>
<rscale>  1 0.13060224E+04</rscale>
<asrwt>0</asrwt>
<pdfrwt beam="2">  1        2 0.49878770E+00 0.13060224E+04</pdfrwt>
<pdfrwt beam="1">  1       -2 0.10176258E+00 0.13060224E+04</pdfrwt>
<totfact> 0.94559626E-01</totfact>
</mgrwt>
</event>
<event>
 5      1 +1.8937969e-08 8.12442400e+02 7.81665300e-03 9.54218000e-02
        1 -1    0    0  502    0 +0.0000000000e+00 +0.0000000000e+00 +1.9386250866e+03 1.9386250866e+03 5.0000000000e-03 0.0000e+00 -1.0000e+00
       -1 -1    0    0    0  501 -0.0000000000e+00 -0.0000000000e+00 -9.5150238830e+02 9.5150238832e+02 5.0000000000e-03 0.0000e+00 1.0000e+00
  1000022  1    1    2    0    0 +2.6977171272e+02 +4.8605839802e+02 +2.6929558472e+02 8.6990435723e+02 6.1252260000e+02 0.0000e+00 -1.0000e+00
  1000022  1    1    2    0    0 -4.9731729446e+02 -2.4739445430e+02 -3.5352361008e+02 8.9927269823e+02 6.1252260000e+02 0.0000e+00 1.0000e+00
       21  1    1    2  502  501 +2.2754558175e+02 -2.3866394372e+02 +1.0713507237e+03 1.1209504195e+03 0.0000000000e+00 0.0000e+00 -1.0000e+00
<mgrwt>
<rscale>  1 0.81244235E+03</rscale>
<asrwt>0</asrwt>
<pdfrwt beam="1">  1        1 0.29825001E+00 0.81244235E+03</pdfrwt>
<pdfrwt beam="2">  1       -1 0.14638498E+00 0.81244235E+03</pdfrwt>
<totfact> 0.12744656E+00</totfact>
</mgrwt>
</event>
<event>
 5      1 +1.8937969e-08 8.07793100e+02 7.81665300e-03 9.54880500e-02
       -3 -1    0    0    0  501 -0.0000000000e+00 +0.0000000000e+00 +3.4665051833e+02 3.4665053134e+02 9.5000000000e-02 0.0000e+00 1.0000e+00
        3 -1    0    0  502    0 +0.0000000000e+00 -0.0000000000e+00 -2.3551852435e+03 2.3551852455e+03 9.5000000000e-02 0.0000e+00 1.0000e+00
  1000022  1    1    2    0    0 +2.0606615522e+02 +4.9046328086e+02 -4.5174290062e+02 9.2858660014e+02 6.1252260000e+02 0.0000e+00 -1.0000e+00
  1000022  1    1    2    0    0 -2.3607341487e+02 -4.6865424299e+02 -1.5214024832e+03 1.7219805191e+03 6.1252260000e+02 0.0000e+00 -1.0000e+00
       21  1    1    2  502  501 +3.0007259653e+01 -2.1809037872e+01 -3.5389341361e+01 5.1268657548e+01 0.0000000000e+00 0.0000e+00 1.0000e+00
<mgrwt>
<rscale>  1 0.80779310E+03</rscale>
<asrwt>0</asrwt>
<pdfrwt beam="2">  1        3 0.36233618E+00 0.80779310E+03</pdfrwt>
<pdfrwt beam="1">  1       -3 0.53330852E-01 0.80779310E+03</pdfrwt>
<totfact> 0.16362892E-01</totfact>
</mgrwt>
</event>
<event>
 5      1 +1.8937969e-08 8.26958900e+02 7.81665300e-03 9.52179500e-02
        3 -1    0    0  502    0 +0.0000000000e+00 +0.0000000000e+00 +7.0585098642e+02 7.0585099281e+02 9.5000000000e-02 0.0000e+00 1.0000e+00
       -3 -1    0    0    0  501 -0.0000000000e+00 -0.0000000000e+00 -1.1336786127e+03 1.1336786167e+03 9.5000000000e-02 0.0000e+00 1.0000e+00
  1000022  1    1    2    0    0 -5.6573051966e+02 +7.4997049283e+01 +5.7801164513e+01 8.3916654390e+02 6.1252260000e+02 0.0000e+00 -1.0000e+00
  1000022  1    1    2    0    0 +5.4042397178e+02 -9.0612054662e+01 -5.0524357889e+02 9.6474018432e+02 6.1252260000e+02 0.0000e+00 -1.0000e+00
       21  1    1    2  502  501 +2.5306547877e+01 +1.5615005379e+01 +1.9614788091e+01 3.5622881275e+01 0.0000000000e+00 0.0000e+00 1.0000e+00
<mgrwt>
<rscale>  1 0.82695888E+03</rscale>
<asrwt>0</asrwt>
<pdfrwt beam="1">  1        3 0.10859246E+00 0.82695888E+03</pdfrwt>
<pdfrwt beam="2">  1       -3 0.17441209E+00 0.82695888E+03</pdfrwt>
<totfact> 0.40055203E-01</totfact>
</mgrwt>
</event>
<event>
 5      1 +1.8937969e-08 7.58949800e+02 7.81665300e-03 9.62141300e-02
        1 -1    0    0  502    0 +0.0000000000e+00 +0.0000000000e+00 +3.8632691099e+03 3.8632691099e+03 5.0000000000e-03 0.0000e+00 -1.0000e+00
       -1 -1    0    0    0  501 -0.0000000000e+00 -0.0000000000e+00 -3.0631318570e+02 3.0631318574e+02 5.0000000000e-03 0.0000e+00 1.0000e+00
  1000022  1    1    2    0    0 +2.6588577567e+02 -2.2521169404e+02 +2.4478370660e+03 2.5472545593e+03 6.1252260000e+02 0.0000e+00 -1.0000e+00
  1000022  1    1    2    0    0 -2.6573768374e+02 +3.9380776519e+02 +3.6038433647e+02 8.5484611362e+02 6.1252260000e+02 0.0000e+00 1.0000e+00
       21  1    1    2  502  501 -1.4809192413e-01 -1.6859607115e+02 +7.4873452178e+02 7.6748162274e+02 0.0000000000e+00 0.0000e+00 -1.0000e+00
<mgrwt>
<rscale>  1 0.75894979E+03</rscale>
<asrwt>0</asrwt>
<pdfrwt beam="1">  1        1 0.59434906E+00 0.75894979E+03</pdfrwt>
<pdfrwt beam="2">  1       -1 0.47125108E-01 0.75894979E+03</pdfrwt>
<totfact> 0.62408970E-01</totfact>
</mgrwt>
</event>
<event>
 5      1 +1.8937969e-08 8.20969800e+02 7.81665300e-03 9.53015000e-02
       -3 -1    0    0    0  501 -0.0000000000e+00 +0.0000000000e+00 +3.6187549183e+02 3.6187550430e+02 9.5000000000e-02 0.0000e+00 -1.0000e+00
        3 -1    0    0  502    0 +0.0000000000e+00 -0.0000000000e+00 -2.5391786696e+03 2.5391786713e+03 9.5000000000e-02 0.0000e+00 -1.0000e+00
  1000022  1    1    2    0    0 -3.0372339890e+02 -4.6693098226e+02 -5.0466225035e+02 9.6960835788e+02 6.1252260000e+02 0.0000e+00 1.0000e+00
  1000022  1    1    2    0    0 +3.0100406778e+02 +4.3486388855e+02 -1.1410877161e+03 1.3989192835e+03 6.1252260000e+02 0.0000e+00 1.0000e+00
       21  1    1    2  502  501 +2.7193311134e+00 +3.2067093713e+01 -5.3155321131e+02 5.3252653428e+02 0.0000000000e+00 0.0000e+00 1.0000e+00
<mgrwt>
<rscale>  1 0.82096983E+03</rscale>
<asrwt>0</asrwt>
<pdfrwt beam="2">  1        3 0.39064286E+00 0.82096983E+03</pdfrwt>
<pdfrwt beam="1">  1       -3 0.55673155E-01 0.82096983E+03</pdfrwt>
<totfact> 0.10561842E-01</totfact>
</mgrwt>
</event>
<event>
 5      1 +1.8937969e-08 7.21299000e+02 7.81665300e-03 9.68148600e-02
        2 -1    0    0  502    0 +0.0000000000e+00 +0.0000000000e+00 +2.0005432892e+03 2.0005432892e+03 2.5000000000e-03 0.0000e+00 -1.0000e+00
       -2 -1    0    0    0  501 -0.0000000000e+00 -0.0000000000e+00 -4.7207722100e+02 4.7207722101e+02 2.5000000000e-03 0.0000e+00 1.0000e+00
  1000022  1    1    2    0    0 +4.0081373940e+02 -1.4916532650e+01 -1.5709991279e+01 7.3232840719e+02 6.1252260000e+02 0.0000e+00 1.0000e+00
  1000022  1    1    2    0    0 -3.7608035780e+02 +2.0617392172e+01 +1.5546088772e+03 1.7128497333e+03 6.1252260000e+02 0.0000e+00 -1.0000e+00
       21  1    1    2  502  501 -2.4733381604e+01 -5.7008595227e+00 -1.0432817771e+01 2.7442369641e+01 0.0000000000e+00 0.0000e+00 -1.0000e+00
<mgrwt>
<rscale>  1 0.72129904E+03</rscale>
<asrwt>0</asrwt>
<pdfrwt beam="1">  1        2 0.30777589E+00 0.72129904E+03</pdfrwt>
<pdfrwt beam="2">  1       -2 0.72627266E-01 0.72129904E+03</pdfrwt>
<totfact> 0.11900722E+01</totfact>
</mgrwt>
</event>
<event>
 5      1 +1.8937969e-08 9.24395900e+02 7.81665300e-03 9.39558900e-02
        2 -1    0    0  502    0 +0.0000000000e+00 +0.0000000000e+00 +1.0067986367e+03 1.0067986367e+03 2.5000000000e-03 0.0000e+00 -1.0000e+00
       -2 -1    0    0    0  501 -0.0000000000e+00 -0.0000000000e+00 -9.5280154365e+02 9.5280154365e+02 2.5000000000e-03 0.0000e+00 1.0000e+00
  1000022  1    1    2    0    0 +4.9048245188e+02 -5.0435755496e+02 +2.7310888142e+02 9.7196809385e+02 6.1252260000e+02 0.0000e+00 -1.0000e+00
  1000022  1    1    2    0    0 -4.6715417787e+02 +5.0242204949e+02 -2.4595268511e+02 9.5201764718e+02 6.1252260000e+02 0.0000e+00 1.0000e+00
       21  1    1    2  502  501 -2.3328274009e+01 +1.9355054708e+00 +2.6840896704e+01 3.5614439284e+01 0.0000000000e+00 0.0000e+00 1.0000e+00
<mgrwt>
<rscale>  1 0.92439588E+03</rscale>
<asrwt>0</asrwt>
<pdfrwt beam="1">  1        2 0.15489210E+00 0.92439588E+03</pdfrwt>
<pdfrwt beam="2">  1       -2 0.14658485E+00 0.92439588E+03</pdfrwt>
<totfact> 0.79298401E+00</totfact>
</mgrwt>
</event>
<event>
 5      1 +1.8937969e-08 7.77109700e+02 7.81665300e-03 9.59375400e-02
        2 -1    0    0  502    0 +0.0000000000e+00 +0.0000000000e+00 +2.1090486148e+03 2.1090486148e+03 2.5000000000e-03 0.0000e+00 1.0000e+00
       -2 -1    0    0    0  501 -0.0000000000e+00 -0.0000000000e+00 -5.6392270518e+02 5.6392270518e+02 2.5000000000e-03 0.0000e+00 -1.0000e+00
  1000022  1    1    2    0    0 -4.8794787869e+02 -3.8385976446e+01 +4.0731826966e+02 8.8354893685e+02 6.1252260000e+02 0.0000e+00 -1.0000e+00
  1000022  1    1    2    0    0 +4.7373646908e+02 +4.6080258033e+00 +1.3595830440e+03 1.5646397238e+03 6.1252260000e+02 0.0000e+00 1.0000e+00
       21  1    1    2  502  501 +1.4211409605e+01 +3.3777950643e+01 -2.2177540406e+02 2.2478265938e+02 0.0000000000e+00 0.0000e+00 -1.0000e+00
<mgrwt>
<rscale>  1 0.77710970E+03</rscale>
<asrwt>0</asrwt>
<pdfrwt beam="1">  1        2 0.32446901E+00 0.77710970E+03</pdfrwt>
<pdfrwt beam="2">  1       -2 0.86757341E-01 0.77710970E+03</pdfrwt>
<totfact> 0.69057606E+00</totfact>
</mgrwt>
</event>
<event>
 5      1 +1.8937969e-08 6.94874700e+02 7.81665300e-03 9.72603800e-02
        3 -1    0    0  502    0 -0.0000000000e+00 +0.0000000000e+00 +1.0959357025e+03 1.0959357066e+03 9.5000000000e-02 0.0000e+00 -1.0000e+00
       21 -1    0    0  501  502 +0.0000000000e+00 -0.0000000000e+00 -1.1901846911e+03 1.1901846911e+03 0.0000000000e+00 0.0000e+00 -1.0000e+00
  1000022  1    1    2    0    0 +2.7540038875e+02 -1.6252511281e+02 +7.3583348775e+02 1.0094031126e+03 6.1252260000e+02 0.0000e+00 1.0000e+00
  1000022  1    1    2    0    0 -2.8892152241e+02 +2.2382530417e+02 -3.5358523728e+02 7.9610292578e+02 6.1252260000e+02 0.0000e+00 1.0000e+00
        3  1    1    2  501    0 +1.3521133659e+01 -6.1300191354e+01 -4.7649723907e+02 4.8061435932e+02 9.5000000000e-02 0.0000e+00 1.0000e+00
<mgrwt>
<rscale>  1 0.69487466E+03</rscale>
<asrwt>0</asrwt>
<pdfrwt beam="2">  1       21 0.18310534E+00 0.69487466E+03</pdfrwt>
<pdfrwt beam="1">  1        3 0.16860549E+00 0.69487466E+03</pdfrwt>
<totfact> 0.17221780E+00</totfact>
</mgrwt>
</event>
<event>
 5      1 +1.8937969e-08 8.13261700e+02 7.81665300e-03 9.54101700e-02
       21 -1    0    0  501  502 +0.0000000000e+00 +0.0000000000e+00 +6.5040806522e+02 6.5040806522e+02 0.0000000000e+00 0.0000e+00 -1.0000e+00
        3 -1    0    0  502    0 -0.0000000000e+00 -0.0000000000e+00 -1.7760056348e+03 1.7760056373e+03 9.5000000000e-02 0.0000e+00 -1.0000e+00
  1000022  1    1    2    0    0 -5.0619353196e+02 -2.1424051118e+02 -2.8578078367e+02 8.7119772742e+02 6.1252260000e+02 0.0000e+00 1.0000e+00
  1000022  1    1    2    0    0 +4.8718456812e+02 +2.0391222044e+02 -1.0603706084e+03 1.3336036742e+03 6.1252260000e+02 0.0000e+00 1.0000e+00
        3  1    1    2  501    0 +1.9008963842e+01 +1.0328290738e+01 +2.2055382251e+02 2.2161230098e+02 9.5000000000e-02 0.0000e+00 1.0000e+00
<mgrwt>
<rscale>  1 0.81326166E+03</rscale>
<asrwt>0</asrwt>
<pdfrwt beam="1">  1       21 0.10006278E+00 0.81326166E+03</pdfrwt>
<pdfrwt beam="2">  1        3 0.27323164E+00 0.81326166E+03</pdfrwt>
<totfact> 0.19751851E+00</totfact>
</mgrwt>
</event>
<event>
 5      1 +1.8937969e-08 7.85723400e+02 7.81665300e-03 9.58091500e-02
       -3 -1    0    0    0  501 -0.0000000000e+00 +0.0000000000e+00 +1.5876436907e+03 1.5876436935e+03 9.5000000000e-02 0.0000e+00 1.0000e+00
        3 -1    0    0  502    0 +0.0000000000e+00 -0.0000000000e+00 -5.1609034716e+02 5.1609035590e+02 9.5000000000e-02 0.0000e+00 1.0000e+00
  1000022  1    1    2    0    0 -3.0944628146e+02 -3.7784723320e+02 +5.0629369126e+01 7.8503044608e+02 6.1252260000e+02 0.0000e+00 -1.0000e+00
  1000022  1    1    2    0    0 +3.3342246962e+02 +3.7511570920e+02 +9.1506121571e+02 1.2101253251e+03 6.1252260000e+02 0.0000e+00 -1.0000e+00
       21  1    1    2  502  501 -2.3976188162e+01 +2.7315239959e+00 +1.0586275866e+02 1.0857827819e+02 0.0000000000e+00 0.0000e+00 1.0000e+00
<mgrwt>
<rscale>  1 0.78572341E+03</rscale>
<asrwt>0</asrwt>
<pdfrwt beam="2">  1        3 0.79398517E-01 0.78572341E+03</pdfrwt>
<pdfrwt beam="1">  1       -3 0.24425287E+00 0.78572341E+03</pdfrwt>
<totfact> 0.30515166E-01</totfact>
</mgrwt>
</event>
<event>
 5      1 +1.8937969e-08 8.54692200e+02 7.81665300e-03 9.48406100e-02
       -3 -1    0    0    0  501 -0.0000000000e+00 +0.0000000000e+00 +6.9912989495e+02 6.9912990140e+02 9.5000000000e-02 0.0000e+00 1.0000e+00
        3 -1    0    0  502    0 +0.0000000000e+00 -0.0000000000e+00 -1.1448779057e+03 1.1448779096e+03 9.5000000000e-02 0.0000e+00 1.0000e+00
  1000022  1    1    2    0    0 -5.1036518683e+02 -3.0939895383e+02 -6.3488730709e+00 8.5523364074e+02 6.1252260000e+02 0.0000e+00 -1.0000e+00
  1000022  1    1    2    0    0 +5.2155872567e+02 +2.8804704346e+02 -4.4583868413e+02 9.6382087098e+02 6.1252260000e+02 0.0000e+00 -1.0000e+00
       21  1    1    2  502  501 -1.1193538838e+01 +2.1351910369e+01 +6.4395464535e+00 2.4953299314e+01 0.0000000000e+00 0.0000e+00 1.0000e+00
<mgrwt>
<rscale>  1 0.85469215E+03</rscale>
<asrwt>0</asrwt>
<pdfrwt beam="2">  1        3 0.17613506E+00 0.85469215E+03</pdfrwt>
<pdfrwt beam="1">  1       -3 0.10755845E+00 0.85469215E+03</pdfrwt>
<totfact> 0.39939875E-01</totfact>
</mgrwt>
</event>
<event>
 5      1 +1.8937969e-08 8.60571900e+02 7.81665300e-03 9.47625600e-02
        1 -1    0    0  502    0 +0.0000000000e+00 +0.0000000000e+00 +4.1292008620e+03 4.1292008620e+03 5.0000000000e-03 0.0000e+00 1.0000e+00
       -1 -1    0    0    0  501 -0.0000000000e+00 -0.0000000000e+00 -3.8961035943e+02 3.8961035946e+02 5.0000000000e-03 0.0000e+00 1.0000e+00
  1000022  1    1    2    0    0 +5.2219781005e+01 +6.3156673092e+02 +1.1724989667e+03 1.4668132818e+03 6.1252260000e+02 0.0000e+00 -1.0000e+00
  1000022  1    1    2    0    0 +5.5260217089e+02 -4.4857712004e+02 +1.9712368496e+03 2.1834718328e+03 6.1252260000e+02 0.0000e+00 -1.0000e+00
       21  1    1    2  502  501 -6.0482195190e+02 -1.8298961088e+02 +5.9585468620e+02 8.6852610683e+02 0.0000000000e+00 0.0000e+00 1.0000e+00
<mgrwt>
<rscale>  1 0.86057194E+03</rscale>
<asrwt>0</asrwt>
<pdfrwt beam="1">  1        1 0.63526166E+00 0.86057194E+03</pdfrwt>
<pdfrwt beam="2">  1       -1 0.59940057E-01 0.86057194E+03</pdfrwt>
<totfact> 0.22622892E-01</totfact>
</mgrwt>
</event>
<event>
 5      1 +1.8937969e-08 9.63430200e+02 7.81665300e-03 9.34958900e-02
        3 -1    0    0  502    0 +0.0000000000e+00 +0.0000000000e+00 +3.5985191520e+02 3.5985192774e+02 9.5000000000e-02 0.0000e+00 1.0000e+00
       -3 -1    0    0    0  501 -0.0000000000e+00 -0.0000000000e+00 -2.6544025702e+03 2.6544025719e+03 9.5000000000e-02 0.0000e+00 1.0000e+00
  1000022  1    1    2    0    0 +2.0609190996e+02 +7.1799594070e+02 -1.2189835322e+03 1.5553446028e+03 6.1252260000e+02 0.0000e+00 -1.0000e+00
  1000022  1    1    2    0    0 -2.2340084908e+02 -7.0635098769e+02 -1.0304444333e+03 1.4091981134e+03 6.1252260000e+02 0.0000e+00 -1.0000e+00
       21  1    1    2  502  501 +1.7308939116e+01 -1.1644953005e+01 -4.5122689532e+01 4.9711783456e+01 0.0000000000e+00 0.0000e+00 -1.0000e+00
<mgrwt>
<rscale>  1 0.96343017E+03</rscale>
<asrwt>0</asrwt>
<pdfrwt beam="1">  1        3 0.55361836E-01 0.96343017E+03</pdfrwt>
<pdfrwt beam="2">  1       -3 0.40836961E+00 0.96343017E+03</pdfrwt>
<totfact> 0.80491901E-02</totfact>
</mgrwt>
</event>
<event>
 5      1 +1.8937969e-08 8.69901100e+02 7.81665300e-03 9.46400900e-02
        3 -1    0    0  502    0 +0.0000000000e+00 +0.0000000000e+00 +6.0676116003e+02 6.0676116747e+02 9.5000000000e-02 0.0000e+00 -1.0000e+00
       -3 -1    0    0    0  501 -0.0000000000e+00 -0.0000000000e+00 -1.6369049562e+03 1.6369049589e+03 9.5000000000e-02 0.0000e+00 -1.0000e+00
  1000022  1    1    2    0    0 +3.3384622591e+02 -5.1612404115e+02 -4.6941887820e+01 8.6903671082e+02 6.1252260000e+02 0.0000e+00 1.0000e+00
  1000022  1    1    2    0    0 -3.6150173363e+02 +5.0928137341e+02 -7.8800484235e+02 1.1773642545e+03 6.1252260000e+02 0.0000e+00 1.0000e+00
       21  1    1    2  502  501 +2.7655507726e+01 +6.8426677371e+00 -1.9519706597e+02 1.9726516107e+02 0.0000000000e+00 0.0000e+00 -1.0000e+00
<mgrwt>
<rscale>  1 0.86990114E+03</rscale>
<asrwt>0</asrwt>
<pdfrwt beam="1">  1        3 0.93347872E-01 0.86990114E+03</pdfrwt>
<pdfrwt beam="2">  1       -3 0.25183153E+00 0.86990114E+03</pdfrwt>
<totfact> 0.18953266E-01</totfact>
</mgrwt>
</event>
<event>
 5      1 +1.8937969e-08 6.16858400e+02 7.81665300e-03 9.87103500e-02
       21 -1    0    0  501  502 +0.0000000000e+00 +0.0000000000e+00 +8.5596821428e+02 8.5596821428e+02 0.0000000000e+00 0.0000e+00 -1.0000e+00
       -3 -1    0    0    0  501 -0.0000000000e+00 -0.0000000000e+00 -1.1859591626e+03 1.1859591665e+03 9.5000000000e-02 0.0000e+00 -1.0000e+00
  1000022  1    1    2    0    0 -6.0631779702e+01 +7.3016792479e+00 +3.9099888528e+02 7.2924179188e+02 6.1252260000e+02 0.0000e+00 1.0000e+00
  1000022  1    1    2    0    0 +2.1131335631e+01 +8.0645213308e+01 -9.1023309681e+02 1.1002992365e+03 6.1252260000e+02 0.0000e+00 1.0000e+00
       -3  1    1    2    0  502 +3.9500444071e+01 -8.7946892556e+01 +1.8924326316e+02 2.1238635236e+02 9.5000000000e-02 0.0000e+00 1.0000e+00
<mgrwt>
<rscale>  1 0.61685837E+03</rscale>
<asrwt>0</asrwt>
<pdfrwt beam="1">  1       21 0.13168742E+00 0.61685837E+03</pdfrwt>
<pdfrwt beam="2">  1       -3 0.18245526E+00 0.61685837E+03</pdfrwt>
<totfact> 0.35402551E+00</totfact>
</mgrwt>
</event>
<event>
 5      1 +1.8937969e-08 7.97347100e+02 7.81665300e-03 9.56386500e-02
        2 -1    0    0  502    0 +0.0000000000e+00 +0.0000000000e+00 +1.7429505123e+03 1.7429505123e+03 2.5000000000e-03 0.0000e+00 1.0000e+00
       -2 -1    0    0    0  501 -0.0000000000e+00 -0.0000000000e+00 -1.2117921512e+03 1.2117921512e+03 2.5000000000e-03 0.0000e+00 -1.0000e+00
  1000022  1    1    2    0    0 -4.8434597159e+02 -1.9052461760e+02 +1.4339034646e+03 1.6438229015e+03 6.1252260000e+02 0.0000e+00 1.0000e+00
  1000022  1    1    2    0    0 +4.5563900350e+02 +2.2846561508e+02 -9.5263903434e+02 1.2419776584e+03 6.1252260000e+02 0.0000e+00 -1.0000e+00
       21  1    1    2  502  501 +2.8706968092e+01 -3.7940997476e+01 +4.9893930870e+01 6.8942103566e+01 0.0000000000e+00 0.0000e+00 -1.0000e+00
<mgrwt>
<rscale>  1 0.79734705E+03</rscale>
<asrwt>0</asrwt>
<pdfrwt beam="1">  1        2 0.26814623E+00 0.79734705E+03</pdfrwt>
<pdfrwt beam="2">  1       -2 0.18642956E+00 0.79734705E+03</pdfrwt>
<totfact> 0.15614886E+00</totfact>
</mgrwt>
</event>
<event>
 5      1 +1.8937969e-08 8.46561300e+02 7.81665300e-03 9.49496400e-02
        3 -1    0    0  502    0 +0.0000000000e+00 +0.0000000000e+00 +8.9595967392e+02 8.9595967896e+02 9.5000000000e-02 0.0000e+00 1.0000e+00
       -3 -1    0    0    0  501 -0.0000000000e+00 -0.0000000000e+00 -9.5261551597e+02 9.5261552071e+02 9.5000000000e-02 0.0000e+00 1.0000e+00
  1000022  1    1    2    0    0 -3.4203377095e+02 +4.8428078624e+02 +8.9668929290e+01 8.5716943062e+02 6.1252260000e+02 0.0000e+00 -1.0000e+00
  1000022  1    1    2    0    0 +3.4911837084e+02 -4.6172622932e+02 -2.5475279174e+02 8.8043038800e+02 6.1252260000e+02 0.0000e+00 -1.0000e+00
       21  1    1    2  502  501 -7.0845998886e+00 -2.2554556922e+01 +1.0842802039e+02 1.1097538105e+02 0.0000000000e+00 0.0000e+00 -1.0000e+00
<mgrwt>
<rscale>  1 0.84656133E+03</rscale>
<asrwt>0</asrwt>
<pdfrwt beam="1">  1        3 0.13783995E+00 0.84656133E+03</pdfrwt>
<pdfrwt beam="2">  1       -3 0.14655623E+00 0.84656133E+03</pdfrwt>
<totfact> 0.35362639E-01</totfact>
</mgrwt>
</event>
<event>
 5      1 +1.8937969e-08 8.26851100e+02 7.81665300e-03 9.52194400e-02
       -3 -1    0    0    0  501 -0.0000000000e+00 +0.0000000000e+00 +2.7033994024e+03 2.7033994041e+03 9.5000000000e-02 0.0000e+00 1.0000e+00
        3 -1    0    0  502    0 +0.0000000000e+00 -0.0000000000e+00 -4.0872410767e+02 4.0872411871e+02 9.5000000000e-02 0.0000e+00 1.0000e+00
  1000022  1    1    2    0    0 +3.7975257833e+01 -4.6095871902e+02 +4.7447600866e+02 9.0235053009e+02 6.1252260000e+02 0.0000e+00 -1.0000e+00
  1000022  1    1    2    0    0 -2.0763086710e+02 +5.6606753360e+02 +1.8171595447e+03 2.0101730711e+03 6.1252260000e+02 0.0000e+00 -1.0000e+00
       21  1    1    2  502  501 +1.6965560927e+02 -1.0510881458e+02 +3.0397413975e+00 1.9959992156e+02 0.0000000000e+00 0.0000e+00 1.0000e+00
<mgrwt>
<rscale>  1 0.82685112E+03</rscale>
<asrwt>0</asrwt>
<pdfrwt beam="2">  1        3 0.62880633E-01 0.82685112E+03</pdfrwt>
<pdfrwt beam="1">  1       -3 0.41590760E+00 0.82685112E+03</pdfrwt>
<totfact> 0.56769772E-02</totfact>
</mgrwt>
</event>
<event>
 5      1 +1.8937969e-08 7.19737100e+02 7.81665300e-03 9.68406200e-02
        3 -1    0    0  502    0 +0.0000000000e+00 +0.0000000000e+00 +7.3020878023e+02 7.3020878641e+02 9.5000000000e-02 0.0000e+00 1.0000e+00
       -3 -1    0    0    0  501 -0.0000000000e+00 -0.0000000000e+00 -1.1188944644e+03 1.1188944684e+03 9.5000000000e-02 0.0000e+00 1.0000e+00
  1000022  1    1    2    0    0 -2.5785654667e+02 +2.7584332370e+02 -7.2573930056e+02 1.0219887503e+03 6.1252260000e+02 0.0000e+00 1.0000e+00
  1000022  1    1    2    0    0 +2.8375705778e+02 -2.5340423950e+02 +3.2130028106e+02 7.8939824078e+02 6.1252260000e+02 0.0000e+00 1.0000e+00
       21  1    1    2  502  501 -2.5900511106e+01 -2.2439084207e+01 +1.5753335336e+01 3.7716263731e+01 0.0000000000e+00 0.0000e+00 -1.0000e+00
<mgrwt>
<rscale>  1 0.71973707E+03</rscale>
<asrwt>0</asrwt>
<pdfrwt beam="1">  1        3 0.11233981E+00 0.71973707E+03</pdfrwt>
<pdfrwt beam="2">  1       -3 0.17213761E+00 0.71973707E+03</pdfrwt>
<totfact> 0.38551382E-01</totfact>
</mgrwt>
</event>
<event>
 5      1 +1.8937969e-08 8.53114900e+02 7.81665300e-03 9.48616600e-02
       -3 -1    0    0    0  501 -0.0000000000e+00 +0.0000000000e+00 +8.0085421502e+02 8.0085422066e+02 9.5000000000e-02 0.0000e+00 -1.0000e+00
        3 -1    0    0  502    0 +0.0000000000e+00 -0.0000000000e+00 -1.0092166641e+03 1.0092166686e+03 9.5000000000e-02 0.0000e+00 -1.0000e+00
  1000022  1    1    2    0    0 +3.0606753710e+02 +5.2750133884e+02 -1.5331040391e+02 8.7785136282e+02 6.1252260000e+02 0.0000e+00 1.0000e+00
  1000022  1    1    2    0    0 -2.8032791564e+02 -5.0529407981e+02 -1.2799208832e+02 8.5174629882e+02 6.1252260000e+02 0.0000e+00 1.0000e+00
       21  1    1    2  502  501 -2.5739621460e+01 -2.2207259034e+01 +7.2940043141e+01 8.0473227598e+01 0.0000000000e+00 0.0000e+00 -1.0000e+00
<mgrwt>
<rscale>  1 0.85311494E+03</rscale>
<asrwt>0</asrwt>
<pdfrwt beam="2">  1        3 0.15526410E+00 0.85311494E+03</pdfrwt>
<pdfrwt beam="1">  1       -3 0.12320834E+00 0.85311494E+03</pdfrwt>
<totfact> 0.40304461E-01</totfact>
</mgrwt>
</event>
<event>
 5      1 +1.8937969e-08 6.21494600e+02 7.81665300e-03 9.86178800e-02
       -2 -1    0    0    0  501 -0.0000000000e+00 +0.0000000000e+00 +1.0835375840e+03 1.0835375840e+03 2.5000000000e-03 0.0000e+00 1.0000e+00
        2 -1    0    0  502    0 +0.0000000000e+00 -0.0000000000e+00 -9.2680257860e+02 9.2680257860e+02 2.5000000000e-03 0.0000e+00 -1.0000e+00
  1000022  1    1    2    0    0 -4.4578753150e+01 -8.0046837546e+01 -3.1085691004e+02 6.9297237713e+02 6.1252260000e+02 0.0000e+00 -1.0000e+00
  1000022  1    1    2    0    0 +6.7519832775e+01 +8.4785323763e+01 +7.8360706044e+02 1.0004856019e+03 6.1252260000e+02 0.0000e+00 1.0000e+00
       21  1    1    2  502  501 -2.2941079625e+01 -4.7384862178e+00 -3.1601514500e+02 3.1688218356e+02 0.0000000000e+00 0.0000e+00 1.0000e+00
<mgrwt>
<rscale>  1 0.62149463E+03</rscale>
<asrwt>0</asrwt>
<pdfrwt beam="2">  1        2 0.14258501E+00 0.62149463E+03</pdfrwt>
<pdfrwt beam="1">  1       -2 0.16669809E+00 0.62149463E+03</pdfrwt>
<totfact> 0.65690961E+00</totfact>
</mgrwt>
</event>
<event>
 5      1 +1.8937969e-08 8.37028000e+02 7.81665300e-03 9.50791500e-02
        3 -1    0    0  502    0 +0.0000000000e+00 +0.0000000000e+00 +4.1113095103e+02 4.1113096200e+02 9.5000000000e-02 0.0000e+00 -1.0000e+00
       -3 -1    0    0    0  501 -0.0000000000e+00 -0.0000000000e+00 -2.0809008058e+03 2.0809008080e+03 9.5000000000e-02 0.0000e+00 -1.0000e+00
  1000022  1    1    2    0    0 +2.9671876558e+02 +5.0225477043e+02 -3.6748566908e+02 9.2224266479e+02 6.1252260000e+02 0.0000e+00 1.0000e+00
  1000022  1    1    2    0    0 -2.4165469352e+02 -4.8814280062e+02 -1.2163062111e+03 1.4667191686e+03 6.1252260000e+02 0.0000e+00 1.0000e+00
       21  1    1    2  502  501 -5.5064072059e+01 -1.4111969808e+01 -8.5977974585e+01 1.0306993663e+02 0.0000000000e+00 0.0000e+00 -1.0000e+00
<mgrwt>
<rscale>  1 0.83702804E+03</rscale>
<asrwt>0</asrwt>
<pdfrwt beam="1">  1        3 0.63250918E-01 0.83702804E+03</pdfrwt>
<pdfrwt beam="2">  1       -3 0.32013858E+00 0.83702804E+03</pdfrwt>
<totfact> 0.18768051E-01</totfact>
</mgrwt>
</event>
<event>
 5      1 +1.8937969e-08 7.92266300e+02 7.81665300e-03 9.57127900e-02
        3 -1    0    0  502    0 +0.0000000000e+00 +0.0000000000e+00 +1.1793529582e+03 1.1793529620e+03 9.5000000000e-02 0.0000e+00 1.0000e+00
       -3 -1    0    0    0  501 -0.0000000000e+00 -0.0000000000e+00 -7.3278391257e+02 7.3278391873e+02 9.5000000000e-02 0.0000e+00 1.0000e+00
  1000022  1    1    2    0    0 -1.3549034288e+02 -4.4650689856e+02 +5.2604861150e+02 9.3254336127e+02 6.1252260000e+02 0.0000e+00 -1.0000e+00
  1000022  1    1    2    0    0 +1.5911939515e+02 +4.9252414410e+02 -2.1858484933e+02 8.3118125960e+02 6.1252260000e+02 0.0000e+00 -1.0000e+00
       21  1    1    2  502  501 -2.3629052276e+01 -4.6017245544e+01 +1.3910528343e+02 1.4841225986e+02 0.0000000000e+00 0.0000e+00 1.0000e+00
<mgrwt>
<rscale>  1 0.79226630E+03</rscale>
<asrwt>0</asrwt>
<pdfrwt beam="1">  1        3 0.18143891E+00 0.79226630E+03</pdfrwt>
<pdfrwt beam="2">  1       -3 0.11273599E+00 0.79226630E+03</pdfrwt>
<totfact> 0.32999662E-01</totfact>
</mgrwt>
</event>
<event>
 5      1 +1.8937969e-08 7.31785000e+02 7.81665300e-03 9.66436800e-02
       -3 -1    0    0    0  501 -0.0000000000e+00 +0.0000000000e+00 +5.9510189565e+02 5.9510190324e+02 9.5000000000e-02 0.0000e+00 -1.0000e+00
        3 -1    0    0  502    0 +0.0000000000e+00 -0.0000000000e+00 -1.3850455697e+03 1.3850455730e+03 9.5000000000e-02 0.0000e+00 -1.0000e+00
  1000022  1    1    2    0    0 +3.9813734417e+02 +5.6063472350e+01 +1.6939235102e+02 7.5202005415e+02 6.1252260000e+02 0.0000e+00 1.0000e+00
  1000022  1    1    2    0    0 -3.9920938067e+02 -2.7717117583e+01 -9.4817032022e+02 1.1976423756e+03 6.1252260000e+02 0.0000e+00 1.0000e+00
       21  1    1    2  502  501 +1.0720364998e+00 -2.8346354767e+01 -1.1165704838e+01 3.0485046422e+01 0.0000000000e+00 0.0000e+00 -1.0000e+00
<mgrwt>
<rscale>  1 0.73178498E+03</rscale>
<asrwt>0</asrwt>
<pdfrwt beam="2">  1        3 0.21308393E+00 0.73178498E+03</pdfrwt>
<pdfrwt beam="1">  1       -3 0.91554139E-01 0.73178498E+03</pdfrwt>
<totfact> 0.34148566E-01</totfact>
</mgrwt>
</event>
<event>
 5      1 +1.8937969e-08 7.23491200e+02 7.81665300e-03 9.67788200e-02
        3 -1    0    0  502    0 +0.0000000000e+00 +0.0000000000e+00 +5.8717061987e+02 5.8717062755e+02 9.5000000000e-02 0.0000e+00 1.0000e+00
       -3 -1    0    0    0  501 -0.0000000000e+00 -0.0000000000e+00 -1.1070252567e+03 1.1070252608e+03 9.5000000000e-02 0.0000e+00 1.0000e+00
  1000022  1    1    2    0    0 -1.4717307432e+00 +3.6851684553e+02 -5.7183037536e+02 9.1541288233e+02 6.1252260000e+02 0.0000e+00 -1.0000e+00
  1000022  1    1    2    0    0 -3.2536867461e+01 -3.9141132317e+02 +7.5466514683e+01 7.3153304915e+02 6.1252260000e+02 0.0000e+00 -1.0000e+00
       21  1    1    2  502  501 +3.4008598204e+01 +2.2894477635e+01 -2.3490776146e+01 4.7249956846e+01 0.0000000000e+00 0.0000e+00 1.0000e+00
<mgrwt>
<rscale>  1 0.72349116E+03</rscale>
<asrwt>0</asrwt>
<pdfrwt beam="1">  1        3 0.90333942E-01 0.72349116E+03</pdfrwt>
<pdfrwt beam="2">  1       -3 0.17031158E+00 0.72349116E+03</pdfrwt>
<totfact> 0.66218937E-01</totfact>
</mgrwt>
</event>
<event>
 5      1 +1.8937969e-08 7.90001000e+02 7.81665300e-03 9.57460400e-02
        2 -1    0    0  502    0 +0.0000000000e+00 +0.0000000000e+00 +8.2711744637e+02 8.2711744637e+02 2.5000000000e-03 0.0000e+00 -1.0000e+00
       -2 -1    0    0    0  501 -0.0000000000e+00 -0.0000000000e+00 -1.0712695461e+03 1.0712695461e+03 2.5000000000e-03 0.0000e+00 1.0000e+00
  1000022  1    1    2    0    0 -1.8611450756e+02 -4.6450097491e+02 -5.2865775209e+02 9.5134784384e+02 6.1252260000e+02 0.0000e+00 1.0000e+00
  1000022  1    1    2    0    0 +2.5014917574e+02 +4.3261464139e+02 +3.3593789719e+02 8.5893436556e+02 6.1252260000e+02 0.0000e+00 -1.0000e+00
       21  1    1    2  502  501 -6.4034668174e+01 +3.1886333528e+01 -5.1432244873e+01 8.8104783109e+01 0.0000000000e+00 0.0000e+00 1.0000e+00
<mgrwt>
<rscale>  1 0.79000100E+03</rscale>
<asrwt>0</asrwt>
<pdfrwt beam="1">  1        2 0.12724884E+00 0.79000100E+03</pdfrwt>
<pdfrwt beam="2">  1       -2 0.16481070E+00 0.79000100E+03</pdfrwt>
<totfact> 0.77491133E+00</totfact>
</mgrwt>
</event>
<event>
 5      1 +1.8937969e-08 6.89727400e+02 7.81665300e-03 9.73496300e-02
       21 -1    0    0  501  502 +0.0000000000e+00 +0.0000000000e+00 +6.3746713719e+02 6.3746713719e+02 0.0000000000e+00 0.0000e+00 1.0000e+00
       -1 -1    0    0    0  501 -0.0000000000e+00 -0.0000000000e+00 -1.4867471897e+03 1.4867471897e+03 5.0000000000e-03 0.0000e+00 1.0000e+00
  1000022  1    1    2    0    0 +2.0324944749e+02 +2.5077792052e+02 -8.4585834364e+02 1.0930965997e+03 6.1252260000e+02 0.0000e+00 1.0000e+00
  1000022  1    1    2    0    0 -2.7740049016e+02 -1.6001980212e+02 -2.6832708674e+02 7.4144502831e+02 6.1252260000e+02 0.0000e+00 -1.0000e+00
       -1  1    1    2    0  502 +7.4151042674e+01 -9.0758118399e+01 +2.6490537790e+02 2.8967269883e+02 5.0000000000e-03 0.0000e+00 1.0000e+00
<mgrwt>
<rscale>  1 0.68972739E+03</rscale>
<asrwt>0</asrwt>
<pdfrwt beam="1">  1       21 0.98071869E-01 0.68972739E+03</pdfrwt>
<pdfrwt beam="2">  1       -1 0.22873033E+00 0.68972739E+03</pdfrwt>
<totfact> 0.69899333E+00</totfact>
</mgrwt>
</event>
<event>
 5      1 +1.8937969e-08 7.17179200e+02 7.81665300e-03 9.68829600e-02
        3 -1    0    0  502    0 +0.0000000000e+00 +0.0000000000e+00 +2.6635284114e+03 2.6635284131e+03 9.5000000000e-02 0.0000e+00 1.0000e+00
       -3 -1    0    0    0  501 -0.0000000000e+00 -0.0000000000e+00 -4.0146957331e+02 4.0146958455e+02 9.5000000000e-02 0.0000e+00 1.0000e+00
  1000022  1    1    2    0    0 +3.6909490985e+02 +1.1234980682e+02 +1.1423625503e+02 7.3286246257e+02 6.1252260000e+02 0.0000e+00 -1.0000e+00
  1000022  1    1    2    0    0 -2.4910201776e+02 -2.6181345564e+02 +1.5757084558e+03 1.7287681088e+03 6.1252260000e+02 0.0000e+00 -1.0000e+00
       21  1    1    2  502  501 -1.1999289210e+02 +1.4946364882e+02 +5.7211412727e+02 6.0336742627e+02 0.0000000000e+00 0.0000e+00 1.0000e+00
<mgrwt>
<rscale>  1 0.71717922E+03</rscale>
<asrwt>0</asrwt>
<pdfrwt beam="1">  1        3 0.40977362E+00 0.71717922E+03</pdfrwt>
<pdfrwt beam="2">  1       -3 0.61764548E-01 0.71717922E+03</pdfrwt>
<totfact> 0.68165629E-02</totfact>
</mgrwt>
</event>
<event>
 5      1 +1.8937969e-08 8.33327100e+02 7.81665300e-03 9.51299200e-02
        3 -1    0    0  502    0 +0.0000000000e+00 +0.0000000000e+00 +1.2093666295e+03 1.2093666333e+03 9.5000000000e-02 0.0000e+00 -1.0000e+00
       -3 -1    0    0    0  501 -0.0000000000e+00 -0.0000000000e+00 -1.2239317691e+03 1.2239317728e+03 9.5000000000e-02 0.0000e+00 -1.0000e+00
  1000022  1    1    2    0    0 -2.6478819654e+02 +5.6869798099e+02 -2.7082721439e+01 8.7718161855e+02 6.1252260000e+02 0.0000e+00 1.0000e+00
  1000022  1    1    2    0    0 +3.1749847676e+02 -4.3311305724e+02 -5.4488882244e+02 9.8004079886e+02 6.1252260000e+02 0.0000e+00 1.0000e+00
       21  1    1    2  502  501 -5.2710280221e+01 -1.3558492375e+02 +5.5740640429e+02 5.7607598868e+02 0.0000000000e+00 0.0000e+00 -1.0000e+00
<mgrwt>
<rscale>  1 0.83332713E+03</rscale>
<asrwt>0</asrwt>
<pdfrwt beam="1">  1        3 0.18605641E+00 0.83332713E+03</pdfrwt>
<pdfrwt beam="2">  1       -3 0.18829719E+00 0.83332713E+03</pdfrwt>
<totfact> 0.80979226E-02</totfact>
</mgrwt>
</event>
<event>
 5      1 +1.8937969e-08 6.77795700e+02 7.81665300e-03 9.75597700e-02
       -2 -1    0    0    0  501 -0.0000000000e+00 +0.0000000000e+00 +5.0023707815e+02 5.0023707815e+02 2.5000000000e-03 0.0000e+00 1.0000e+00
        2 -1    0    0  502    0 +0.0000000000e+00 -0.0000000000e+00 -1.4094905781e+03 1.4094905781e+03 2.5000000000e-03 0.0000e+00 -1.0000e+00
  1000022  1    1    2    0    0 -8.9001629718e+01 -2.8151029199e+02 +9.4992702472e+01 6.8656892125e+02 6.1252260000e+02 0.0000e+00 1.0000e+00
  1000022  1    1    2    0    0 +7.0452572200e+01 +2.6323526708e+02 -9.4711993318e+02 1.1603777291e+03 6.1252260000e+02 0.0000e+00 -1.0000e+00
       21  1    1    2  502  501 +1.8549057518e+01 +1.8275024910e+01 -5.7126269285e+01 6.2781005987e+01 0.0000000000e+00 0.0000e+00 1.0000e+00
<mgrwt>
<rscale>  1 0.67779569E+03</rscale>
<asrwt>0</asrwt>
<pdfrwt beam="2">  1        2 0.21684470E+00 0.67779569E+03</pdfrwt>
<pdfrwt beam="1">  1       -2 0.76959551E-01 0.67779569E+03</pdfrwt>
<totfact> 0.22223869E+01</totfact>
</mgrwt>
</event>
<event>
 5      1 +1.8937969e-08 7.68838800e+02 7.81665300e-03 9.60625000e-02
       21 -1    0    0  501  502 +0.0000000000e+00 +0.0000000000e+00 +1.0867470385e+03 1.0867470385e+03 0.0000000000e+00 0.0000e+00 1.0000e+00
        3 -1    0    0  502    0 -0.0000000000e+00 -0.0000000000e+00 -8.6230532395e+02 8.6230532918e+02 9.5000000000e-02 0.0000e+00 1.0000e+00
  1000022  1    1    2    0    0 +2.8559620283e+02 -3.2780148532e+02 +4.4810429699e+02 8.7464301365e+02 6.1252260000e+02 0.0000e+00 -1.0000e+00
  1000022  1    1    2    0    0 -2.9444161590e+02 +3.7316303698e+02 -4.1372727958e+02 8.7880641482e+02 6.1252260000e+02 0.0000e+00 -1.0000e+00
        3  1    1    2  501    0 +8.8454130755e+00 -4.5361551666e+01 +1.9006469715e+02 1.9560293921e+02 9.5000000000e-02 0.0000e+00 -1.0000e+00
<mgrwt>
<rscale>  1 0.76883884E+03</rscale>
<asrwt>0</asrwt>
<pdfrwt beam="1">  1       21 0.16719185E+00 0.76883884E+03</pdfrwt>
<pdfrwt beam="2">  1        3 0.13266236E+00 0.76883884E+03</pdfrwt>
<totfact> 0.41171551E+00</totfact>
</mgrwt>
</event>
<event>
 5      1 +1.8937969e-08 8.55051300e+02 7.81665300e-03 9.48358200e-02
       -3 -1    0    0    0  501 -0.0000000000e+00 +0.0000000000e+00 +1.5649396047e+03 1.5649396076e+03 9.5000000000e-02 0.0000e+00 -1.0000e+00
        3 -1    0    0  502    0 +0.0000000000e+00 -0.0000000000e+00 -1.1011332187e+03 1.1011332228e+03 9.5000000000e-02 0.0000e+00 -1.0000e+00
  1000022  1    1    2    0    0 -3.1683235924e+02 -4.9425356580e+02 -3.6624493277e+02 9.2411504557e+02 6.1252260000e+02 0.0000e+00 1.0000e+00
  1000022  1    1    2    0    0 +2.9853535231e+02 +5.3339508697e+02 -4.4360843469e+01 8.6647879104e+02 6.1252260000e+02 0.0000e+00 1.0000e+00
       21  1    1    2  502  501 +1.8297006929e+01 -3.9141521174e+01 +8.7441216219e+02 8.7547899377e+02 0.0000000000e+00 0.0000e+00 -1.0000e+00
<mgrwt>
<rscale>  1 0.85505129E+03</rscale>
<asrwt>0</asrwt>
<pdfrwt beam="2">  1        3 0.16940511E+00 0.85505129E+03</pdfrwt>
<pdfrwt beam="1">  1       -3 0.24075994E+00 0.85505129E+03</pdfrwt>
<totfact> 0.49889287E-02</totfact>
</mgrwt>
</event>
<event>
 5      1 +1.8937969e-08 9.64973900e+02 7.81665300e-03 9.34781800e-02
        1 -1    0    0  502    0 +0.0000000000e+00 +0.0000000000e+00 +3.5499005287e+03 3.5499005287e+03 5.0000000000e-03 0.0000e+00 -1.0000e+00
       -1 -1    0    0    0  501 -0.0000000000e+00 -0.0000000000e+00 -3.7452341244e+02 3.7452341247e+02 5.0000000000e-03 0.0000e+00 1.0000e+00
  1000022  1    1    2    0    0 +3.1969254771e+02 -6.5946537804e+02 +2.2675217889e+03 2.4604749356e+03 6.1252260000e+02 0.0000e+00 -1.0000e+00
  1000022  1    1    2    0    0 -2.8588062401e+02 +6.9402263836e+02 +5.7289323073e+02 1.1255157676e+03 6.1252260000e+02 0.0000e+00 1.0000e+00
       21  1    1    2  502  501 -3.3811923692e+01 -3.4557260325e+01 +3.3496209655e+02 3.3843323796e+02 0.0000000000e+00 0.0000e+00 -1.0000e+00
<mgrwt>
<rscale>  1 0.96497389E+03</rscale>
<asrwt>0</asrwt>
<pdfrwt beam="1">  1        1 0.54613855E+00 0.96497389E+03</pdfrwt>
<pdfrwt beam="2">  1       -1 0.57618985E-01 0.96497389E+03</pdfrwt>
<totfact> 0.72912679E-01</totfact>
</mgrwt>
</event>
<event>
 5      1 +1.8937969e-08 7.19582300e+02 7.81665300e-03 9.68431800e-02
        2 -1    0    0  502    0 +0.0000000000e+00 +0.0000000000e+00 +1.0157013473e+03 1.0157013473e+03 2.5000000000e-03 0.0000e+00 1.0000e+00
       -2 -1    0    0    0  501 -0.0000000000e+00 -0.0000000000e+00 -1.0942891273e+03 1.0942891273e+03 2.5000000000e-03 0.0000e+00 -1.0000e+00
  1000022  1    1    2    0    0 -4.3565156109e+02 +1.5568083939e+01 +6.6397083956e+02 1.0030333291e+03 6.1252260000e+02 0.0000e+00 1.0000e+00
  1000022  1    1    2    0    0 +3.6754900203e+02 +1.2666736162e+01 -7.4628450422e+02 1.0331394929e+03 6.1252260000e+02 0.0000e+00 -1.0000e+00
       21  1    1    2  502  501 +6.8102559060e+01 -2.8234820101e+01 +3.7258847014e+00 7.3817652588e+01 0.0000000000e+00 0.0000e+00 -1.0000e+00
<mgrwt>
<rscale>  1 0.71958226E+03</rscale>
<asrwt>0</asrwt>
<pdfrwt beam="1">  1        2 0.15626175E+00 0.71958226E+03</pdfrwt>
<pdfrwt beam="2">  1       -2 0.16835217E+00 0.71958226E+03</pdfrwt>
<totfact> 0.55216772E+00</totfact>
</mgrwt>
</event>
<event>
 5      1 +1.8937969e-08 6.87299600e+02 7.81665300e-03 9.73920100e-02
       -2 -1    0    0    0  501 -0.0000000000e+00 +0.0000000000e+00 +5.2754357743e+02 5.2754357743e+02 2.5000000000e-03 0.0000e+00 1.0000e+00
        2 -1    0    0  502    0 +0.0000000000e+00 -0.0000000000e+00 -1.2948205414e+03 1.2948205414e+03 2.5000000000e-03 0.0000e+00 -1.0000e+00
  1000022  1    1    2    0    0 +4.2575282008e+02 +3.0837758563e+01 -4.1542752652e+02 8.5438890235e+02 6.1252260000e+02 0.0000e+00 1.0000e+00
  1000022  1    1    2    0    0 -2.2534797688e+02 +9.5752326610e+01 -2.1259524941e+02 6.9305908429e+02 6.1252260000e+02 0.0000e+00 -1.0000e+00
       21  1    1    2  502  501 -2.0040484320e+02 -1.2659008517e+02 -1.3925418799e+02 2.7491613215e+02 0.0000000000e+00 0.0000e+00 -1.0000e+00
<mgrwt>
<rscale>  1 0.68729959E+03</rscale>
<asrwt>0</asrwt>
<pdfrwt beam="2">  1        2 0.19920316E+00 0.68729959E+03</pdfrwt>
<pdfrwt beam="1">  1       -2 0.81160551E-01 0.68729959E+03</pdfrwt>
<totfact> 0.22898715E+01</totfact>
</mgrwt>
</event>
<event>
 5      1 +1.8937969e-08 7.07381300e+02 7.81665300e-03 9.70469200e-02
        3 -1    0    0  502    0 +0.0000000000e+00 +0.0000000000e+00 +1.1028387433e+03 1.1028387474e+03 9.5000000000e-02 0.0000e+00 1.0000e+00
       -3 -1    0    0    0  501 -0.0000000000e+00 -0.0000000000e+00 -8.1180609425e+02 8.1180609981e+02 9.5000000000e-02 0.0000e+00 1.0000e+00
  1000022  1    1    2    0    0 +4.0522740707e+02 +5.4182831481e+00 +6.1033350224e+02 9.5495001372e+02 6.1252260000e+02 0.0000e+00 1.0000e+00
  1000022  1    1    2    0    0 -3.3823240554e+02 -4.7724510988e+01 -4.3067689058e+02 8.2300990802e+02 6.1252260000e+02 0.0000e+00 1.0000e+00
       21  1    1    2  502  501 -6.6995001534e+01 +4.2306227840e+01 +1.1137603740e+02 1.3668492547e+02 0.0000000000e+00 0.0000e+00 1.0000e+00
<mgrwt>
<rscale>  1 0.70738130E+03</rscale>
<asrwt>0</asrwt>
<pdfrwt beam="1">  1        3 0.16966750E+00 0.70738130E+03</pdfrwt>
<pdfrwt beam="2">  1       -3 0.12489325E+00 0.70738130E+03</pdfrwt>
<totfact> 0.31074299E-01</totfact>
</mgrwt>
</event>
<event>
 5      1 +1.8937969e-08 6.53066900e+02 7.81665300e-03 9.80104100e-02
       21 -1    0    0  501  502 +0.0000000000e+00 +0.0000000000e+00 +5.4191627984e+02 5.4191627984e+02 0.0000000000e+00 0.0000e+00 1.0000e+00
       -3 -1    0    0    0  501 -0.0000000000e+00 -0.0000000000e+00 -1.3660855478e+03 1.3660855511e+03 9.5000000000e-02 0.0000e+00 1.0000e+00
  1000022  1    1    2    0    0 +2.0287432644e+02 +7.1935867189e+01 -2.5223196313e+02 6.9651824101e+02 6.1252260000e+02 0.0000e+00 -1.0000e+00
  1000022  1    1    2    0    0 -2.2412584759e+02 -6.2988585134e+01 -7.7057130140e+02 1.0115157060e+03 6.1252260000e+02 0.0000e+00 1.0000e+00
       -3  1    1    2    0  502 +2.1251521145e+01 -8.9472820551e+00 +1.9863399655e+02 1.9996788397e+02 9.5000000000e-02 0.0000e+00 -1.0000e+00
<mgrwt>
<rscale>  1 0.65306690E+03</rscale>
<asrwt>0</asrwt>
<pdfrwt beam="1">  1       21 0.83371736E-01 0.65306690E+03</pdfrwt>
<pdfrwt beam="2">  1       -3 0.21016701E+00 0.65306690E+03</pdfrwt>
<totfact> 0.72814030E+00</totfact>
</mgrwt>
</event>
<event>
 5      1 +1.8937969e-08 7.69963100e+02 7.81665300e-03 9.60454200e-02
        2 -1    0    0  502    0 +0.0000000000e+00 +0.0000000000e+00 +1.3720131657e+03 1.3720131657e+03 2.5000000000e-03 0.0000e+00 -1.0000e+00
       -2 -1    0    0    0  501 -0.0000000000e+00 -0.0000000000e+00 -1.3519804604e+03 1.3519804604e+03 2.5000000000e-03 0.0000e+00 1.0000e+00
  1000022  1    1    2    0    0 +3.7883070224e+02 +2.8048890045e+02 -1.0935865269e+03 1.3391423193e+03 6.1252260000e+02 0.0000e+00 1.0000e+00
  1000022  1    1    2    0    0 -3.0625337218e+02 -2.9680619423e+02 +9.7918125607e+02 1.2312046591e+03 6.1252260000e+02 0.0000e+00 -1.0000e+00
       21  1    1    2  502  501 -7.2577330064e+01 +1.6317293772e+01 +1.3443797606e+02 1.5364664761e+02 0.0000000000e+00 0.0000e+00 -1.0000e+00
<mgrwt>
<rscale>  1 0.76996309E+03</rscale>
<asrwt>0</asrwt>
<pdfrwt beam="1">  1        2 0.21107895E+00 0.76996309E+03</pdfrwt>
<pdfrwt beam="2">  1       -2 0.20799699E+00 0.76996309E+03</pdfrwt>
<totfact> 0.18205894E+00</totfact>
</mgrwt>
</event>
<event>
 5      1 +1.8937969e-08 8.67520800e+02 7.81665300e-03 9.46711800e-02
        3 -1    0    0  502    0 +0.0000000000e+00 +0.0000000000e+00 +3.2127706847e+02 3.2127708251e+02 9.5000000000e-02 0.0000e+00 -1.0000e+00
       -3 -1    0    0    0  501 -0.0000000000e+00 -0.0000000000e+00 -2.8525773834e+03 2.8525773850e+03 9.5000000000e-02 0.0000e+00 -1.0000e+00
  1000022  1    1    2    0    0 -5.6194539398e+01 +5.6218353836e+02 -9.1950933486e+02 1.2409228459e+03 6.1252260000e+02 0.0000e+00 1.0000e+00
  1000022  1    1    2    0    0 -1.9372118618e+01 -6.8404832474e+02 -1.3234076301e+03 1.6108659412e+03 6.1252260000e+02 0.0000e+00 1.0000e+00
       21  1    1    2  502  501 +7.5566658017e+01 +1.2186478638e+02 -2.8838334997e+02 3.2206568042e+02 0.0000000000e+00 0.0000e+00 -1.0000e+00
<mgrwt>
<rscale>  1 0.86752077E+03</rscale>
<asrwt>0</asrwt>
<pdfrwt beam="1">  1        3 0.49427244E-01 0.86752077E+03</pdfrwt>
<pdfrwt beam="2">  1       -3 0.43885804E+00 0.86752077E+03</pdfrwt>
<totfact> 0.70282252E-02</totfact>
</mgrwt>
</event>
<event>
 5      1 +1.8937969e-08 7.57862200e+02 7.81665300e-03 9.62309600e-02
        2 -1    0    0  502    0 +0.0000000000e+00 +0.0000000000e+00 +1.5305213537e+03 1.5305213537e+03 2.5000000000e-03 0.0000e+00 -1.0000e+00
       -2 -1    0    0    0  501 -0.0000000000e+00 -0.0000000000e+00 -5.1548789346e+02 5.1548789347e+02 2.5000000000e-03 0.0000e+00 1.0000e+00
  1000022  1    1    2    0    0 -4.0871671652e+02 -8.0762180316e+01 +2.8338527942e+02 7.9313494201e+02 6.1252260000e+02 0.0000e+00 1.0000e+00
  1000022  1    1    2    0    0 +4.7627075806e+02 +5.4932346994e+01 +3.3030407343e+02 8.4506574547e+02 6.1252260000e+02 0.0000e+00 -1.0000e+00
       21  1    1    2  502  501 -6.7554041537e+01 +2.5829833322e+01 +4.0134410740e+02 4.0780855969e+02 0.0000000000e+00 0.0000e+00 -1.0000e+00
<mgrwt>
<rscale>  1 0.75786225E+03</rscale>
<asrwt>0</asrwt>
<pdfrwt beam="1">  1        2 0.23546483E+00 0.75786225E+03</pdfrwt>
<pdfrwt beam="2">  1       -2 0.79305829E-01 0.75786225E+03</pdfrwt>
<totfact> 0.17605363E+01</totfact>
</mgrwt>
</event>
<event>
 5      1 +1.8937969e-08 9.40010800e+02 7.81665300e-03 9.37690300e-02
        1 -1    0    0  502    0 +0.0000000000e+00 +0.0000000000e+00 +1.9792182356e+03 1.9792182356e+03 5.0000000000e-03 0.0000e+00 -1.0000e+00
       -1 -1    0    0    0  501 -0.0000000000e+00 -0.0000000000e+00 -5.8103925102e+02 5.8103925104e+02 5.0000000000e-03 0.0000e+00 1.0000e+00
  1000022  1    1    2    0    0 -4.0140115619e+02 -6.3247005622e+02 +2.6279810521e+02 1.0026904008e+03 6.1252260000e+02 0.0000e+00 1.0000e+00
  1000022  1    1    2    0    0 +4.3927828436e+02 +5.4281521456e+02 +1.1261562603e+03 1.4598032834e+03 6.1252260000e+02 0.0000e+00 -1.0000e+00
       21  1    1    2  502  501 -3.7877128170e+01 +8.9654841667e+01 +9.2246191181e+00 9.7763802456e+01 0.0000000000e+00 0.0000e+00 -1.0000e+00
<mgrwt>
<rscale>  1 0.94001084E+03</rscale>
<asrwt>0</asrwt>
<pdfrwt beam="1">  1        1 0.30449511E+00 0.94001084E+03</pdfrwt>
<pdfrwt beam="2">  1       -1 0.89390655E-01 0.94001084E+03</pdfrwt>
<totfact> 0.38478241E+00</totfact>
</mgrwt>
</event>
<event>
 5      1 +1.8937969e-08 8.65498000e+02 7.81665300e-03 9.46976900e-02
        3 -1    0    0  502    0 +0.0000000000e+00 +0.0000000000e+00 +6.5104597553e+02 6.5104598246e+02 9.5000000000e-02 0.0000e+00 1.0000e+00
       -3 -1    0    0    0  501 -0.0000000000e+00 -0.0000000000e+00 -1.7702826935e+03 1.7702826961e+03 9.5000000000e-02 0.0000e+00 1.0000e+00
  1000022  1    1    2    0    0 +5.2633335526e+02 -8.8552355414e+01 -2.0744943809e+02 8.3850314572e+02 6.1252260000e+02 0.0000e+00 -1.0000e+00
  1000022  1    1    2    0    0 -7.3356448219e+02 -6.1416099426e+01 -4.5713818986e+02 1.0611541108e+03 6.1252260000e+02 0.0000e+00 -1.0000e+00
       21  1    1    2  502  501 +2.0723112693e+02 +1.4996845484e+02 -4.5464909004e+02 5.2167142196e+02 0.0000000000e+00 0.0000e+00 1.0000e+00
<mgrwt>
<rscale>  1 0.86549804E+03</rscale>
<asrwt>0</asrwt>
<pdfrwt beam="1">  1        3 0.10016092E+00 0.86549804E+03</pdfrwt>
<pdfrwt beam="2">  1       -3 0.27235118E+00 0.86549804E+03</pdfrwt>
<totfact> 0.12294290E-01</totfact>
</mgrwt>
</event>
<event>
 5      1 +1.8937969e-08 7.84931200e+02 7.81665300e-03 9.58208800e-02
        3 -1    0    0  502    0 +0.0000000000e+00 +0.0000000000e+00 +5.4770660450e+02 5.4770661274e+02 9.5000000000e-02 0.0000e+00 1.0000e+00
       -3 -1    0    0    0  501 -0.0000000000e+00 -0.0000000000e+00 -2.2633847730e+03 2.2633847750e+03 9.5000000000e-02 0.0000e+00 1.0000e+00
  1000022  1    1    2    0    0 +3.4137332594e+02 +3.8147262124e+02 -9.0195890750e+02 1.2044795203e+03 6.1252260000e+02 0.0000e+00 -1.0000e+00
  1000022  1    1    2    0    0 -2.9798359614e+02 -3.8069681953e+02 +1.1343935734e+01 7.8040817036e+02 6.1252260000e+02 0.0000e+00 -1.0000e+00
       21  1    1    2  502  501 -4.3389729800e+01 -7.7580170884e-01 -8.2506319672e+02 8.2620369710e+02 0.0000000000e+00 0.0000e+00 -1.0000e+00
<mgrwt>
<rscale>  1 0.78493119E+03</rscale>
<asrwt>0</asrwt>
<pdfrwt beam="1">  1        3 0.84262557E-01 0.78493119E+03</pdfrwt>
<pdfrwt beam="2">  1       -3 0.34821304E+00 0.78493119E+03</pdfrwt>
<totfact> 0.70297596E-02</totfact>
</mgrwt>
</event>
<event>
 5      1 +1.8937969e-08 8.62182000e+02 7.81665300e-03 9.47413100e-02
       -3 -1    0    0    0  501 -0.0000000000e+00 +0.0000000000e+00 +9.0401492261e+02 9.0401492760e+02 9.5000000000e-02 0.0000e+00 1.0000e+00
        3 -1    0    0  502    0 +0.0000000000e+00 -0.0000000000e+00 -8.7085812397e+02 8.7085812915e+02 9.5000000000e-02 0.0000e+00 1.0000e+00
  1000022  1    1    2    0    0 +5.6258395050e+02 -2.2179685546e+02 +1.7560014062e+02 8.7847247615e+02 6.1252260000e+02 0.0000e+00 -1.0000e+00
  1000022  1    1    2    0    0 -5.7445264398e+02 +2.0495286031e+02 -1.3861605094e+02 8.7544266529e+02 6.1252260000e+02 0.0000e+00 -1.0000e+00
       21  1    1    2  502  501 +1.1868693476e+01 +1.6843995146e+01 -3.8272910409e+00 2.0957915307e+01 0.0000000000e+00 0.0000e+00 1.0000e+00
<mgrwt>
<rscale>  1 0.86218197E+03</rscale>
<asrwt>0</asrwt>
<pdfrwt beam="2">  1        3 0.13397817E+00 0.86218197E+03</pdfrwt>
<pdfrwt beam="1">  1       -3 0.13907922E+00 0.86218197E+03</pdfrwt>
<totfact> 0.43430127E-01</totfact>
</mgrwt>
</event>
<event>
 5      1 +1.8937969e-08 8.70321900e+02 7.81665300e-03 9.46346000e-02
       -3 -1    0    0    0  501 -0.0000000000e+00 +0.0000000000e+00 +1.6405510180e+03 1.6405510208e+03 9.5000000000e-02 0.0000e+00 1.0000e+00
        3 -1    0    0  502    0 +0.0000000000e+00 -0.0000000000e+00 -5.0948706858e+02 5.0948707744e+02 9.5000000000e-02 0.0000e+00 1.0000e+00
  1000022  1    1    2    0    0 -1.3947063091e+02 -6.2894367799e+02 +7.0408644232e+02 1.1339946476e+03 6.1252260000e+02 0.0000e+00 -1.0000e+00
  1000022  1    1    2    0    0 +1.0688468767e+02 +5.7745271036e+02 +4.3669339792e+02 9.5433800535e+02 6.1252260000e+02 0.0000e+00 -1.0000e+00
       21  1    1    2  502  501 +3.2585943236e+01 +5.1490967635e+01 -9.7158907921e+00 6.1705445290e+01 0.0000000000e+00 0.0000e+00 1.0000e+00
<mgrwt>
<rscale>  1 0.87032190E+03</rscale>
<asrwt>0</asrwt>
<pdfrwt beam="2">  1        3 0.78382626E-01 0.87032190E+03</pdfrwt>
<pdfrwt beam="1">  1       -3 0.25239247E+00 0.87032190E+03</pdfrwt>
<totfact> 0.28000474E-01</totfact>
</mgrwt>
</event>
<event>
 5      1 +1.8937969e-08 1.69571000e+03 7.81665300e-03 8.99365400e-02
       21 -1    0    0  501  502 +0.0000000000e+00 +0.0000000000e+00 +4.8431734125e+02 4.8431734125e+02 0.0000000000e+00 0.0000e+00 1.0000e+00
        2 -1    0    0  502    0 -0.0000000000e+00 -0.0000000000e+00 -2.9637899687e+03 2.9637899687e+03 2.5000000000e-03 0.0000e+00 -1.0000e+00
  1000022  1    1    2    0    0 +6.9680609889e+01 -2.7176231033e+02 -9.4923016024e+02 1.1640154524e+03 6.1252260000e+02 0.0000e+00 1.0000e+00
  1000022  1    1    2    0    0 +5.8059189305e+02 -2.1440820659e+02 -9.3262822628e+02 1.2759455981e+03 6.1252260000e+02 0.0000e+00 1.0000e+00
        2  1    1    2  501    0 -6.5027250294e+02 +4.8617051692e+02 -5.9761424096e+02 1.0081462595e+03 2.5000000000e-03 0.0000e+00 -1.0000e+00
<mgrwt>
<rscale>  1 0.13462728E+04</rscale>
<asrwt>0</asrwt>
<pdfrwt beam="1">  1       21 0.74510359E-01 0.16957104E+04</pdfrwt>
<pdfrwt beam="2">  1        2 0.45596770E+00 0.16957104E+04</pdfrwt>
<totfact> 0.29223512E+01</totfact>
</mgrwt>
</event>
<event>
 5      1 +1.8937969e-08 6.39857000e+02 7.81665300e-03 9.82600000e-02
       21 -1    0    0  501  502 +0.0000000000e+00 +0.0000000000e+00 +5.8831954362e+02 5.8831954362e+02 0.0000000000e+00 0.0000e+00 1.0000e+00
        2 -1    0    0  502    0 -0.0000000000e+00 -0.0000000000e+00 -9.3557924473e+02 9.3557924474e+02 2.5000000000e-03 0.0000e+00 -1.0000e+00
  1000022  1    1    2    0    0 +9.1666744542e+01 +1.5914191255e+02 -3.4961066522e+02 7.2879386189e+02 6.1252260000e+02 0.0000e+00 -1.0000e+00
  1000022  1    1    2    0    0 -1.5984910183e+02 -1.1517169408e+02 -1.1381026119e+02 6.5341637991e+02 6.1252260000e+02 0.0000e+00 1.0000e+00
        2  1    1    2  501    0 +6.8182357284e+01 -4.3970218477e+01 +1.1616122529e+02 1.4168854655e+02 2.5000000000e-03 0.0000e+00 -1.0000e+00
<mgrwt>
<rscale>  1 0.63985703E+03</rscale>
<asrwt>0</asrwt>
<pdfrwt beam="1">  1       21 0.90510700E-01 0.63985703E+03</pdfrwt>
<pdfrwt beam="2">  1        2 0.14393527E+00 0.63985703E+03</pdfrwt>
<totfact> 0.32100059E+02</totfact>
</mgrwt>
</event>
<event>
 5      1 +1.8937969e-08 6.37707900e+02 7.81665300e-03 9.83012200e-02
        2 -1    0    0  502    0 +0.0000000000e+00 +0.0000000000e+00 +3.5916177631e+03 3.5916177631e+03 2.5000000000e-03 0.0000e+00 -1.0000e+00
       -2 -1    0    0    0  501 -0.0000000000e+00 -0.0000000000e+00 -3.4725289388e+02 3.4725289389e+02 2.5000000000e-03 0.0000e+00 1.0000e+00
  1000022  1    1    2    0    0 -4.9709791115e+01 +1.7484113843e+02 +3.3234949065e+01 6.3978823400e+02 6.1252260000e+02 0.0000e+00 1.0000e+00
  1000022  1    1    2    0    0 +2.3699765940e+01 -1.7558088979e+02 +3.2103397466e+03 3.2730498854e+03 6.1252260000e+02 0.0000e+00 -1.0000e+00
       21  1    1    2  502  501 +2.6010025176e+01 +7.3975135629e-01 +7.9017354215e-01 2.6032537639e+01 0.0000000000e+00 0.0000e+00 1.0000e+00
<mgrwt>
<rscale>  1 0.63770792E+03</rscale>
<asrwt>0</asrwt>
<pdfrwt beam="1">  1        2 0.55255658E+00 0.63770792E+03</pdfrwt>
<pdfrwt beam="2">  1       -2 0.53423522E-01 0.63770792E+03</pdfrwt>
<totfact> 0.25908615E+00</totfact>
</mgrwt>
</event>
<event>
 5      1 +1.8937969e-08 7.57999300e+02 7.81665300e-03 9.62288400e-02
       -3 -1    0    0    0  501 -0.0000000000e+00 +0.0000000000e+00 +1.8804091090e+03 1.8804091114e+03 9.5000000000e-02 0.0000e+00 -1.0000e+00
        3 -1    0    0  502    0 +0.0000000000e+00 -0.0000000000e+00 -6.0941287653e+02 6.0941288394e+02 9.5000000000e-02 0.0000e+00 -1.0000e+00
  1000022  1    1    2    0    0 -2.1595431736e+02 +6.2968288056e+02 +9.0032857149e+02 1.2762884742e+03 6.1252260000e+02 0.0000e+00 1.0000e+00
  1000022  1    1    2    0    0 +2.0394924882e+02 -3.1958511053e+02 -1.2492533497e+01 7.2046508442e+02 6.1252260000e+02 0.0000e+00 1.0000e+00
       21  1    1    2  502  501 +1.2005068533e+01 -3.1009777004e+02 +3.8316019450e+02 4.9306843673e+02 0.0000000000e+00 0.0000e+00 1.0000e+00
<mgrwt>
<rscale>  1 0.75799927E+03</rscale>
<asrwt>0</asrwt>
<pdfrwt beam="2">  1        3 0.93755830E-01 0.75799927E+03</pdfrwt>
<pdfrwt beam="1">  1       -3 0.28929370E+00 0.75799927E+03</pdfrwt>
<totfact> 0.11662446E-01</totfact>
</mgrwt>
</event>
<event>
 5      1 +1.8937969e-08 6.60818300e+02 7.81665300e-03 9.78668900e-02
       -2 -1    0    0    0  501 -0.0000000000e+00 +0.0000000000e+00 +9.0824306480e+02 9.0824306480e+02 2.5000000000e-03 0.0000e+00 1.0000e+00
        2 -1    0    0  502    0 +0.0000000000e+00 -0.0000000000e+00 -1.0330394543e+03 1.0330394543e+03 2.5000000000e-03 0.0000e+00 -1.0000e+00
  1000022  1    1    2    0    0 +1.7202862106e+02 +1.8025175891e+02 -7.5703543403e+02 1.0051721877e+03 6.1252260000e+02 0.0000e+00 -1.0000e+00
  1000022  1    1    2    0    0 -1.8784568448e+02 -1.5337817357e+02 +5.9688572471e+02 8.8896983592e+02 6.1252260000e+02 0.0000e+00 1.0000e+00
       21  1    1    2  502  501 +1.5817063417e+01 -2.6873585333e+01 +3.5353319871e+01 4.7140495433e+01 0.0000000000e+00 0.0000e+00 -1.0000e+00
<mgrwt>
<rscale>  1 0.66081826E+03</rscale>
<asrwt>0</asrwt>
<pdfrwt beam="2">  1        2 0.15892915E+00 0.66081826E+03</pdfrwt>
<pdfrwt beam="1">  1       -2 0.13972970E+00 0.66081826E+03</pdfrwt>
<totfact> 0.89229367E+00</totfact>
</mgrwt>
</event>
<event>
 5      1 +1.8937969e-08 8.85110100e+02 7.81665300e-03 9.44438800e-02
       21 -1    0    0  501  502 +0.0000000000e+00 +0.0000000000e+00 +8.3796081847e+02 8.3796081847e+02 0.0000000000e+00 0.0000e+00 -1.0000e+00
        3 -1    0    0  502    0 -0.0000000000e+00 -0.0000000000e+00 -1.3190394705e+03 1.3190394739e+03 9.5000000000e-02 0.0000e+00 -1.0000e+00
  1000022  1    1    2    0    0 +5.3362777662e+02 -5.6071769927e+02 -3.2033382152e+02 1.0377671391e+03 6.1252260000e+02 0.0000e+00 1.0000e+00
  1000022  1    1    2    0    0 -2.4705850184e+02 +4.5364974875e+02 -1.0201990033e+02 8.0773014890e+02 6.1252260000e+02 0.0000e+00 1.0000e+00
        3  1    1    2  501    0 -2.8656927478e+02 +1.0706795052e+02 -5.8724930133e+01 3.1150300435e+02 9.5000000000e-02 0.0000e+00 1.0000e+00
<mgrwt>
<rscale>  1 0.88511008E+03</rscale>
<asrwt>0</asrwt>
<pdfrwt beam="1">  1       21 0.12891705E+00 0.88511008E+03</pdfrwt>
<pdfrwt beam="2">  1        3 0.20292915E+00 0.88511008E+03</pdfrwt>
<totfact> 0.26285574E+00</totfact>
</mgrwt>
</event>
<event>
 5      1 +1.8937969e-08 7.03831100e+02 7.81665300e-03 9.71070300e-02
        2 -1    0    0  502    0 +0.0000000000e+00 +0.0000000000e+00 +4.2403685289e+02 4.2403685290e+02 2.5000000000e-03 0.0000e+00 -1.0000e+00
       -2 -1    0    0    0  501 -0.0000000000e+00 -0.0000000000e+00 -1.6885041382e+03 1.6885041382e+03 2.5000000000e-03 0.0000e+00 1.0000e+00
  1000022  1    1    2    0    0 -2.7698566258e+02 -2.0822780263e+02 -8.6882496875e+02 1.1180879379e+03 6.1252260000e+02 0.0000e+00 1.0000e+00
  1000022  1    1    2    0    0 +2.4959182478e+02 +2.4187230754e+02 -1.1877344964e+02 7.1420540463e+02 6.1252260000e+02 0.0000e+00 -1.0000e+00
       21  1    1    2  502  501 +2.7393837794e+01 -3.3644504913e+01 -2.7686886686e+02 2.8024764851e+02 0.0000000000e+00 0.0000e+00 1.0000e+00
<mgrwt>
<rscale>  1 0.70383110E+03</rscale>
<asrwt>0</asrwt>
<pdfrwt beam="1">  1        2 0.65236440E-01 0.70383110E+03</pdfrwt>
<pdfrwt beam="2">  1       -2 0.25976986E+00 0.70383110E+03</pdfrwt>
<totfact> 0.43215467E+00</totfact>
</mgrwt>
</event>
<event>
 5      1 +1.8937969e-08 8.24252600e+02 7.81665300e-03 9.52556100e-02
        2 -1    0    0  502    0 -0.0000000000e+00 +0.0000000000e+00 +3.3437178857e+03 3.3437178857e+03 2.5000000000e-03 0.0000e+00 -1.0000e+00
       21 -1    0    0  501  502 +0.0000000000e+00 -0.0000000000e+00 -2.5323486069e+02 2.5323486069e+02 0.0000000000e+00 0.0000e+00 1.0000e+00
  1000022  1    1    2    0    0 +4.8759604112e+02 -2.7099457326e+02 +1.9041415757e+03 2.0765661641e+03 6.1252260000e+02 0.0000e+00 -1.0000e+00
  1000022  1    1    2    0    0 -5.2746342406e+02 +1.5501944522e+02 +1.0813135922e+03 1.3589229972e+03 6.1252260000e+02 0.0000e+00 1.0000e+00
        2  1    1    2  501    0 +3.9867382940e+01 +1.1597512803e+02 +1.0502785719e+02 1.6146358517e+02 2.5000000000e-03 0.0000e+00 -1.0000e+00
<mgrwt>
<rscale>  1 0.82425264E+03</rscale>
<asrwt>0</asrwt>
<pdfrwt beam="2">  1       21 0.38959212E-01 0.82425264E+03</pdfrwt>
<pdfrwt beam="1">  1        2 0.51441810E+00 0.82425264E+03</pdfrwt>
<totfact> 0.80106312E+01</totfact>
</mgrwt>
</event>
<event>
 5      1 +1.8937969e-08 8.72423600e+02 7.81665300e-03 9.46072500e-02
       -3 -1    0    0    0  501 -0.0000000000e+00 +0.0000000000e+00 +8.1415545867e+02 8.1415546421e+02 9.5000000000e-02 0.0000e+00 1.0000e+00
        3 -1    0    0  502    0 +0.0000000000e+00 -0.0000000000e+00 -1.0685524917e+03 1.0685524960e+03 9.5000000000e-02 0.0000e+00 1.0000e+00
  1000022  1    1    2    0    0 +2.7519997806e+02 -5.4590818914e+02 -2.0640705726e+02 8.8968454392e+02 6.1252260000e+02 0.0000e+00 1.0000e+00
  1000022  1    1    2    0    0 -1.8938626573e+02 +6.0391518174e+02 -4.7696278485e+00 8.8078793659e+02 6.1252260000e+02 0.0000e+00 1.0000e+00
       21  1    1    2  502  501 -8.5813712331e+01 -5.8006992598e+01 -4.3220347949e+01 1.1223547964e+02 0.0000000000e+00 0.0000e+00 1.0000e+00
<mgrwt>
<rscale>  1 0.87242362E+03</rscale>
<asrwt>0</asrwt>
<pdfrwt beam="2">  1        3 0.16439269E+00 0.87242362E+03</pdfrwt>
<pdfrwt beam="1">  1       -3 0.12525469E+00 0.87242362E+03</pdfrwt>
<totfact> 0.33201540E-01</totfact>
</mgrwt>
</event>
<event>
 5      1 +1.8937969e-08 6.16960100e+02 7.81665300e-03 9.87083100e-02
        3 -1    0    0  502    0 +0.0000000000e+00 +0.0000000000e+00 +6.5419850533e+02 6.5419851223e+02 9.5000000000e-02 0.0000e+00 -1.0000e+00
       -3 -1    0    0    0  501 -0.0000000000e+00 -0.0000000000e+00 -1.5543975924e+03 1.5543975953e+03 9.5000000000e-02 0.0000e+00 -1.0000e+00
  1000022  1    1    2    0    0 +8.5720118047e+00 -5.8238478434e+01 -1.2268077502e+03 1.3724818364e+03 6.1252260000e+02 0.0000e+00 1.0000e+00
  1000022  1    1    2    0    0 +3.4629399055e+01 +1.6771724259e+02 +2.0834970664e+02 6.6926960525e+02 6.1252260000e+02 0.0000e+00 1.0000e+00
       21  1    1    2  502  501 -4.3201410860e+01 -1.0947876415e+02 +1.1825895658e+02 1.6684466582e+02 0.0000000000e+00 0.0000e+00 -1.0000e+00
<mgrwt>
<rscale>  1 0.61696008E+03</rscale>
<asrwt>0</asrwt>
<pdfrwt beam="1">  1        3 0.10064592E+00 0.61696008E+03</pdfrwt>
<pdfrwt beam="2">  1       -3 0.23913809E+00 0.61696008E+03</pdfrwt>
<totfact> 0.19298806E-01</totfact>
</mgrwt>
</event>
<event>
 5      1 +1.8937969e-08 7.37792200e+02 7.81665300e-03 9.65469900e-02
        2 -1    0    0  502    0 +0.0000000000e+00 +0.0000000000e+00 +1.2087961478e+03 1.2087961478e+03 2.5000000000e-03 0.0000e+00 -1.0000e+00
       -2 -1    0    0    0  501 -0.0000000000e+00 -0.0000000000e+00 -5.5216117911e+02 5.5216117912e+02 2.5000000000e-03 0.0000e+00 1.0000e+00
  1000022  1    1    2    0    0 +3.0613472906e+02 -3.8151994516e+02 +2.4463979362e+02 8.2116289798e+02 6.1252260000e+02 0.0000e+00 1.0000e+00
  1000022  1    1    2    0    0 -2.1489164522e+02 +2.8016630192e+02 +3.6412632105e+02 7.9526315714e+02 6.1252260000e+02 0.0000e+00 -1.0000e+00
       21  1    1    2  502  501 -9.1243083845e+01 +1.0135364324e+02 +4.7868854066e+01 1.4453127183e+02 0.0000000000e+00 0.0000e+00 1.0000e+00
<mgrwt>
<rscale>  1 0.73779224E+03</rscale>
<asrwt>0</asrwt>
<pdfrwt beam="1">  1        2 0.18596864E+00 0.73779224E+03</pdfrwt>
<pdfrwt beam="2">  1       -2 0.84947874E-01 0.73779224E+03</pdfrwt>
<totfact> 0.23040959E+01</totfact>
</mgrwt>
</event>
<event>
 5      1 +1.8937969e-08 1.04190300e+03 7.81665300e-03 9.26374300e-02
        1 -1    0    0  502    0 +0.0000000000e+00 +0.0000000000e+00 +2.6206518791e+03 2.6206518791e+03 5.0000000000e-03 0.0000e+00 -1.0000e+00
       -1 -1    0    0    0  501 -0.0000000000e+00 -0.0000000000e+00 -4.3275948448e+02 4.3275948451e+02 5.0000000000e-03 0.0000e+00 1.0000e+00
  1000022  1    1    2    0    0 +8.2065928759e+02 +9.7471911043e+01 +1.0195391706e+03 1.4483185063e+03 6.1252260000e+02 0.0000e+00 1.0000e+00
  1000022  1    1    2    0    0 -8.4890753914e+02 -1.3071947593e+02 +1.1390918493e+03 1.5525610352e+03 6.1252260000e+02 0.0000e+00 -1.0000e+00
       21  1    1    2  502  501 +2.8248251547e+01 +3.3247564890e+01 +2.9261374788e+01 5.2531822175e+01 0.0000000000e+00 0.0000e+00 -1.0000e+00
<mgrwt>
<rscale>  1 0.10419035E+04</rscale>
<asrwt>0</asrwt>
<pdfrwt beam="1">  1        1 0.40317721E+00 0.10419035E+04</pdfrwt>
<pdfrwt beam="2">  1       -1 0.66578383E-01 0.10419035E+04</pdfrwt>
<totfact> 0.25889123E+00</totfact>
</mgrwt>
</event>
<event>
 5      1 +1.8937969e-08 6.65667200e+02 7.81665300e-03 9.77781700e-02
       21 -1    0    0  501  502 +0.0000000000e+00 +0.0000000000e+00 +6.6246751452e+02 6.6246751452e+02 0.0000000000e+00 0.0000e+00 -1.0000e+00
        3 -1    0    0  502    0 -0.0000000000e+00 -0.0000000000e+00 -1.2355893991e+03 1.2355894027e+03 9.5000000000e-02 0.0000e+00 -1.0000e+00
  1000022  1    1    2    0    0 +1.1022985683e+02 +2.2937310484e+02 -8.9295394737e+02 1.1123458681e+03 6.1252260000e+02 0.0000e+00 1.0000e+00
  1000022  1    1    2    0    0 -1.4065845821e+02 -2.5421072445e+02 +3.0853987875e+02 7.4484138350e+02 6.1252260000e+02 0.0000e+00 1.0000e+00
        3  1    1    2  501    0 +3.0428601371e+01 +2.4837619612e+01 +1.1292184044e+01 4.0869665706e+01 9.5000000000e-02 0.0000e+00 1.0000e+00
<mgrwt>
<rscale>  1 0.66566718E+03</rscale>
<asrwt>0</asrwt>
<pdfrwt beam="1">  1       21 0.10191808E+00 0.66566718E+03</pdfrwt>
<pdfrwt beam="2">  1        3 0.19009068E+00 0.66566718E+03</pdfrwt>
<totfact> 0.60246764E+00</totfact>
</mgrwt>
</event>
<event>
 6      1 +1.8937969e-08 2.42607800e+03 7.81665300e-03 8.42980400e-02
       21 -1    0    0  501  502 +0.0000000000e+00 +0.0000000000e+00 +1.6971959311e+03 1.6971959311e+03 0.0000000000e+00 0.0000e+00 1.0000e+00
        2 -1    0    0  502    0 -0.0000000000e+00 -0.0000000000e+00 -2.6311796897e+03 2.6311796897e+03 2.5000000000e-03 0.0000e+00 1.0000e+00
       36  2    1    2    0    0 +5.5558462988e+02 -1.6495122155e+03 -8.9952593954e+02 2.5874700601e+03 1.6900560836e+03 0.0000e+00 0.0000e+00
  1000022  1    3    3    0    0 +6.5242346031e+02 -5.5429789830e+02 -2.1504694350e+01 1.0528764975e+03 6.1252260000e+02 0.0000e+00 1.0000e+00
  1000022  1    3    3    0    0 -9.6838830425e+01 -1.0952143172e+03 -8.7802124519e+02 1.5345935626e+03 6.1252260000e+02 0.0000e+00 -1.0000e+00
        2  1    1    2  501    0 -5.5558462988e+02 +1.6495122155e+03 -3.4457819106e+01 1.7409055607e+03 2.5000000000e-03 0.0000e+00 1.0000e+00
<mgrwt>
<rscale>  1 0.24260780E+04</rscale>
<asrwt>0</asrwt>
<pdfrwt beam="1">  1       21 0.26110707E+00 0.24260780E+04</pdfrwt>
<pdfrwt beam="2">  1        2 0.40479688E+00 0.24260780E+04</pdfrwt>
<totfact> 0.11598050E+00</totfact>
</mgrwt>
</event>
<event>
 5      1 +1.8937969e-08 7.68423400e+02 7.81665300e-03 9.60688200e-02
       -1 -1    0    0    0  501 -0.0000000000e+00 +0.0000000000e+00 +8.9952741532e+02 8.9952741533e+02 5.0000000000e-03 0.0000e+00 -1.0000e+00
        1 -1    0    0  502    0 +0.0000000000e+00 -0.0000000000e+00 -9.8742764011e+02 9.8742764012e+02 5.0000000000e-03 0.0000e+00 -1.0000e+00
  1000022  1    1    2    0    0 -4.0126788820e+02 -2.6013563507e+02 -5.1436569711e+02 9.3190260897e+02 6.1252260000e+02 0.0000e+00 1.0000e+00
  1000022  1    1    2    0    0 +3.9818989008e+02 +1.6366594675e+02 +3.2867093714e+02 8.1764922254e+02 6.1252260000e+02 0.0000e+00 1.0000e+00
       21  1    1    2  502  501 +3.0779981189e+00 +9.6469688322e+01 +9.7794535185e+01 1.3740322394e+02 0.0000000000e+00 0.0000e+00 -1.0000e+00
<mgrwt>
<rscale>  1 0.76842341E+03</rscale>
<asrwt>0</asrwt>
<pdfrwt beam="2">  1        1 0.15191195E+00 0.76842341E+03</pdfrwt>
<pdfrwt beam="1">  1       -1 0.13838883E+00 0.76842341E+03</pdfrwt>
<totfact> 0.68995862E+00</totfact>
</mgrwt>
</event>
</LesHouchesEvents>
